ITEM: TIMESTEP
1000000
ITEM: NUMBER OF CELLS
50
ITEM: BOX BOUNDS pp ss pp
0 0.0001
0 4e-07
0 0.0001
ITEM: CELLS yc f_1a[1] f_1a[2] f_1a[3] f_1b[*] f_1c[*] f_1d[1] f_1d[2] 
4e-09 315.835 118263 -0.0353595 180.346 -2.80083e+06 -1.00877e-11 1.21197e-08 
1.2e-08 319.942 117881 0.00594006 187.873 -2.81423e+06 5.44032e-11 7.49939e-09 
2e-08 321.697 118029 -0.0220183 187.816 -2.80749e+06 -1.70617e-10 8.979e-09 
2.8e-08 323.389 118133 -0.0807367 187.911 -2.81081e+06 -1.08858e-10 8.8906e-09 
3.6e-08 325.228 118248 0.0177142 187.95 -2.81471e+06 1.48033e-11 8.88271e-09 
4.4e-08 326.869 118273 -0.0581533 187.85 -2.81347e+06 5.59535e-11 8.96596e-09 
5.2e-08 328.543 118309 -0.0291082 187.897 -2.80646e+06 -1.52935e-10 8.79502e-09 
6e-08 330.095 118368 -0.0137262 187.897 -2.80993e+06 8.8096e-11 8.97495e-09 
6.8e-08 331.544 118391 -0.0259459 187.947 -2.80824e+06 3.16004e-11 9.10413e-09 
7.6e-08 333.097 118459 -0.0852074 188.053 -2.81673e+06 5.44452e-11 8.90326e-09 
8.4e-08 334.446 118507 -0.0186881 188.027 -2.80438e+06 1.14951e-11 8.7756e-09 
9.2e-08 336.041 118561 -0.0550518 188.019 -2.81333e+06 1.08231e-11 8.72733e-09 
1e-07 337.454 118582 -0.0140833 188.16 -2.81221e+06 -5.76871e-12 8.54516e-09 
1.08e-07 338.621 118637 -0.0217078 187.966 -2.81098e+06 7.24282e-11 8.79044e-09 
1.16e-07 340.011 118615 -0.0302334 188.069 -2.81832e+06 -4.04995e-11 8.53007e-09 
1.24e-07 341.292 118670 0.00704941 188.155 -2.81235e+06 9.95551e-11 8.71429e-09 
1.32e-07 342.69 118668 -0.0368992 188.151 -2.81711e+06 -1.86427e-10 8.62789e-09 
1.4e-07 343.769 118705 -0.040514 188.169 -2.80553e+06 3.97844e-11 8.73116e-09 
1.48e-07 345.087 118671 -0.0436888 188.139 -2.81736e+06 2.62321e-10 8.42972e-09 
1.56e-07 346.291 118669 0.0163004 188.198 -2.80683e+06 2.88142e-10 8.65649e-09 
1.64e-07 347.442 118705 -0.045927 188.19 -2.82544e+06 -4.36755e-11 8.69009e-09 
1.72e-07 348.802 118687 0.00313775 188.14 -2.81896e+06 1.28352e-10 8.49135e-09 
1.8e-07 349.921 118699 0.00530751 188.168 -2.80885e+06 1.96797e-10 8.71216e-09 
1.88e-07 351.365 118721 -0.0625663 188.339 -2.81812e+06 1.08071e-10 8.46652e-09 
1.96e-07 352.51 118701 0.0174436 188.286 -2.80467e+06 -7.31552e-11 8.42923e-09 
2.04e-07 353.649 118640 -0.0216977 188.334 -2.81591e+06 1.13315e-10 8.53162e-09 
2.12e-07 354.894 118611 -0.0421783 188.334 -2.81536e+06 -1.86296e-10 8.25855e-09 
2.2e-07 356.084 118691 0.0191348 188.342 -2.81663e+06 7.11116e-11 8.3838e-09 
2.28e-07 357.161 118705 0.00702167 188.306 -2.81936e+06 2.91598e-12 8.54648e-09 
2.36e-07 358.373 118635 -0.00783129 188.398 -2.82079e+06 -1.10166e-10 8.44647e-09 
2.44e-07 359.55 118685 -0.0298605 188.29 -2.81457e+06 -1.03476e-10 8.49554e-09 
2.52e-07 360.778 118677 -0.0418603 188.357 -2.81503e+06 2.65004e-11 8.27016e-09 
2.6e-07 361.976 118717 -0.0360246 188.366 -2.80807e+06 -1.29275e-10 8.13775e-09 
2.68e-07 363.246 118738 -0.0180442 188.37 -2.82159e+06 4.9983e-11 8.02466e-09 
2.76e-07 364.263 118773 -0.00292209 188.397 -2.81377e+06 1.76285e-10 7.9619e-09 
2.84e-07 365.526 118763 0.0440285 188.397 -2.8231e+06 1.82605e-10 8.12273e-09 
2.92e-07 366.706 118788 -0.0357088 188.41 -2.80713e+06 8.80117e-11 8.23745e-09 
3e-07 367.917 118825 -0.029778 188.427 -2.81758e+06 -2.0305e-10 8.14191e-09 
3.08e-07 369.185 118858 -0.00667515 188.396 -2.81487e+06 -1.58808e-10 8.06199e-09 
3.16e-07 370.3 118940 -0.0261168 188.422 -2.82362e+06 1.07546e-10 8.13203e-09 
3.24e-07 371.598 118920 -0.0283759 188.418 -2.80198e+06 8.29763e-11 7.98072e-09 
3.32e-07 372.52 118864 -0.0159119 188.476 -2.82322e+06 2.303e-11 7.9155e-09 
3.4e-07 373.743 118884 -0.00837989 188.505 -2.81743e+06 -2.35534e-10 8.0216e-09 
3.48e-07 374.94 118872 -0.0283835 188.582 -2.8092e+06 -2.96102e-11 7.86419e-09 
3.56e-07 376.376 118941 -0.0350722 188.485 -2.82642e+06 -9.54828e-11 7.55063e-09 
3.64e-07 377.567 118914 0.063508 188.6 -2.8084e+06 -1.49288e-10 7.86819e-09 
3.72e-07 378.975 118919 -0.0172858 188.477 -2.82495e+06 5.72473e-11 7.94583e-09 
3.8e-07 380.405 118999 -0.0217016 188.504 -2.81242e+06 2.28264e-10 7.71044e-09 
3.88e-07 382.057 119068 -0.0237089 188.092 -2.81449e+06 6.25887e-11 7.02889e-09 
3.96e-07 383.449 119365 -0.0317285 184.048 -2.82387e+06 8.1577e-13 8.65485e-09 
