ITEM: TIMESTEP
1000000
ITEM: NUMBER OF CELLS
50
ITEM: BOX BOUNDS pp ss pp
0 0.0001
0 4e-07
0 0.0001
ITEM: CELLS yc f_1a[1] f_1a[2] f_1a[3] f_1b[*] f_1c[*] f_1d[1] f_1d[2] 
4e-09 315.187 118634 -0.0595415 180.829 -2.79231e+06 3.15133e-11 1.66842e-08 
1.2e-08 319.802 117814 0.0187276 188.178 -2.82725e+06 -5.41156e-12 1.02254e-08 
2e-08 321.612 118167 -0.0325511 188.102 -2.80342e+06 -4.96957e-11 1.23773e-08 
2.8e-08 323.616 118159 -0.0211824 188.137 -2.81271e+06 6.11241e-11 1.20945e-08 
3.6e-08 325.41 118249 -0.0489556 188.268 -2.81581e+06 6.75211e-11 1.1988e-08 
4.4e-08 326.981 118299 -0.00185238 188.3 -2.80945e+06 2.12147e-10 1.19974e-08 
5.2e-08 328.624 118427 -0.0216973 188.195 -2.82398e+06 3.82664e-11 1.21288e-08 
6e-08 330.199 118357 -0.0066229 188.369 -2.80792e+06 2.72891e-10 1.18598e-08 
6.8e-08 331.658 118339 -0.0224549 188.142 -2.82105e+06 2.07557e-11 1.20222e-08 
7.6e-08 333.052 118344 -0.0135886 188.337 -2.81495e+06 -1.51446e-10 1.16838e-08 
8.4e-08 334.35 118453 0.0285311 188.272 -2.81687e+06 1.97767e-10 1.20578e-08 
9.2e-08 335.85 118464 -0.00452115 188.382 -2.81938e+06 7.38876e-12 1.2055e-08 
1e-07 337.097 118473 -0.013385 188.444 -2.81758e+06 -3.15513e-11 1.20239e-08 
1.08e-07 338.478 118454 -0.0127899 188.462 -2.81573e+06 4.63258e-11 1.19643e-08 
1.16e-07 339.81 118527 -0.0552418 188.412 -2.81653e+06 1.08602e-10 1.18641e-08 
1.24e-07 341.218 118498 -0.00671861 188.527 -2.81669e+06 -3.49279e-11 1.14915e-08 
1.32e-07 342.588 118570 0.00637405 188.376 -2.82129e+06 -6.18907e-11 1.17243e-08 
1.4e-07 343.619 118546 -0.00114639 188.437 -2.8124e+06 -7.75607e-11 1.17658e-08 
1.48e-07 344.997 118581 0.0189078 188.505 -2.82348e+06 -1.40023e-10 1.18904e-08 
1.56e-07 346.187 118666 -0.0336614 188.49 -2.81926e+06 -7.4198e-11 1.17351e-08 
1.64e-07 347.435 118609 0.0194459 188.504 -2.81368e+06 -1.2715e-10 1.16707e-08 
1.72e-07 348.57 118646 -0.0379065 188.541 -2.81589e+06 2.03462e-10 1.1669e-08 
1.8e-07 349.9 118634 0.00621043 188.549 -2.8205e+06 -1.66685e-11 1.1559e-08 
1.88e-07 351.172 118633 -0.00656255 188.554 -2.80893e+06 -8.96622e-11 1.15974e-08 
1.96e-07 352.318 118629 -0.00784375 188.54 -2.82048e+06 6.18296e-11 1.16197e-08 
2.04e-07 353.528 118630 -0.0304884 188.465 -2.82022e+06 -4.4659e-11 1.15319e-08 
2.12e-07 354.8 118739 -0.0197264 188.433 -2.81665e+06 -1.21426e-11 1.13822e-08 
2.2e-07 355.891 118604 0.0139 188.488 -2.81374e+06 -2.35968e-10 1.14469e-08 
2.28e-07 357.058 118599 -0.0281056 188.557 -2.825e+06 -1.55687e-10 1.14487e-08 
2.36e-07 358.223 118628 -0.0288151 188.612 -2.80967e+06 -1.38384e-10 1.12646e-08 
2.44e-07 359.508 118679 -0.00899294 188.658 -2.82241e+06 6.57191e-11 1.11844e-08 
2.52e-07 360.7 118688 0.0321576 188.698 -2.80733e+06 -6.1195e-11 1.13189e-08 
2.6e-07 362.007 118727 -0.0471661 188.709 -2.82486e+06 -4.80398e-11 1.12806e-08 
2.68e-07 363.148 118698 -0.00432818 188.595 -2.81427e+06 8.21377e-11 1.11501e-08 
2.76e-07 364.261 118669 0.00864038 188.67 -2.82108e+06 1.52696e-10 1.10999e-08 
2.84e-07 365.315 118740 -0.0180239 188.632 -2.81678e+06 -1.43658e-10 1.12436e-08 
2.92e-07 366.552 118684 0.0159494 188.753 -2.81343e+06 -1.88175e-10 1.11243e-08 
3e-07 367.758 118749 -0.04062 188.741 -2.81946e+06 -2.2853e-11 1.11191e-08 
3.08e-07 368.847 118731 0.0137073 188.719 -2.82742e+06 6.55591e-11 1.09894e-08 
3.16e-07 370.2 118786 0.0279372 188.826 -2.82046e+06 1.9707e-10 1.10817e-08 
3.24e-07 371.24 118811 -0.0619085 188.733 -2.80856e+06 -3.08481e-10 1.10955e-08 
3.32e-07 372.419 118819 -0.00286888 188.764 -2.83191e+06 -3.96267e-11 1.061e-08 
3.4e-07 373.62 118833 0.0544203 188.771 -2.80885e+06 1.10068e-10 1.09642e-08 
3.48e-07 374.866 118872 -0.0312907 188.842 -2.83138e+06 -1.46657e-11 1.09193e-08 
3.56e-07 376.29 118946 0.0170744 188.884 -2.81151e+06 -1.74102e-10 1.09237e-08 
3.64e-07 377.46 118890 -0.0464995 188.783 -2.81096e+06 7.52651e-11 1.06852e-08 
3.72e-07 378.792 118916 0.03492 188.821 -2.83332e+06 -5.28339e-11 1.05032e-08 
3.8e-07 380.21 118872 0.0292765 188.818 -2.81822e+06 -3.39624e-11 1.05731e-08 
3.88e-07 381.851 118987 -0.0863107 188.334 -2.81177e+06 1.48568e-10 9.5383e-09 
3.96e-07 383.108 119500 0.00684363 184.4 -2.82412e+06 1.0219e-11 1.15869e-08 
