ITEM: TIMESTEP
1000000
ITEM: NUMBER OF CELLS
50
ITEM: BOX BOUNDS pp ss pp
0 0.0001
0 4e-07
0 0.0001
ITEM: CELLS yc f_1a[1] f_1a[2] f_1a[3] f_1b[*] f_1c[*] f_1d[1] f_1d[2] 
4e-09 315.317 116930 0.0207232 203.122 -2.77065e+06 3.91475e-11 -5.78789e-11 
1.2e-08 317.562 117032 -0.00803603 201.863 -2.77369e+06 -4.48927e-11 1.01275e-10 
2e-08 319.314 117082 -0.0117835 200.84 -2.76576e+06 3.73354e-11 -8.30294e-11 
2.8e-08 321.145 117153 -0.0163066 199.817 -2.77399e+06 -1.3738e-11 -1.38127e-10 
3.6e-08 322.652 117197 0.019253 198.957 -2.77045e+06 1.39933e-12 -1.93202e-10 
4.4e-08 324.11 117238 0.0241344 198.131 -2.7675e+06 5.64974e-11 5.67598e-11 
5.2e-08 325.588 117255 -0.00955815 197.261 -2.7677e+06 -7.77259e-11 1.30923e-10 
6e-08 327.029 117259 -0.0246292 196.4 -2.77881e+06 1.60329e-10 -9.19199e-11 
6.8e-08 328.431 117287 0.0363898 195.608 -2.76695e+06 -5.15146e-11 -3.26036e-11 
7.6e-08 329.741 117314 -0.0216986 194.874 -2.77414e+06 -1.3482e-10 2.62381e-11 
8.4e-08 330.979 117321 -0.00163496 194.157 -2.76949e+06 7.88714e-11 -7.41901e-11 
9.2e-08 332.231 117383 0.0259054 193.527 -2.76932e+06 -1.05447e-10 2.19715e-11 
1e-07 333.56 117413 -0.00722502 192.807 -2.76622e+06 -1.08971e-10 1.22567e-10 
1.08e-07 334.863 117408 -0.00115031 192.048 -2.77273e+06 7.07639e-12 5.32924e-11 
1.16e-07 336.194 117452 0.00208414 191.359 -2.77235e+06 -2.66851e-11 5.5032e-11 
1.24e-07 337.468 117478 -0.00419385 190.679 -2.77621e+06 -6.37975e-11 3.92296e-11 
1.32e-07 338.682 117450 -0.00657251 189.951 -2.76933e+06 -1.70792e-11 -1.60818e-11 
1.4e-07 339.907 117446 0.0279108 189.259 -2.76919e+06 -1.36218e-10 1.03374e-10 
1.48e-07 341.117 117453 -0.0275614 188.6 -2.77391e+06 -3.66583e-11 1.03774e-11 
1.56e-07 342.377 117486 0.017912 187.958 -2.76527e+06 7.81459e-11 3.18921e-11 
1.64e-07 343.639 117496 -0.0150055 187.284 -2.77283e+06 -6.46512e-11 -1.48276e-11 
1.72e-07 344.898 117439 0.0358115 186.508 -2.76778e+06 1.81459e-11 9.22321e-11 
1.8e-07 346.071 117447 -0.0422085 185.89 -2.77411e+06 -1.51985e-10 5.33525e-11 
1.88e-07 347.171 117409 0.00601689 185.241 -2.771e+06 -2.90466e-11 -1.01316e-10 
1.96e-07 348.366 117492 0.0124544 184.736 -2.77196e+06 -1.70316e-10 -3.42827e-11 
2.04e-07 349.65 117510 0.0179105 184.086 -2.77545e+06 1.09065e-10 1.03478e-10 
2.12e-07 350.923 117505 -0.0206891 183.411 -2.77064e+06 -8.40638e-11 6.29524e-11 
2.2e-07 351.967 117492 -0.0217958 182.847 -2.78019e+06 -9.90158e-11 -1.05714e-10 
2.28e-07 353.062 117541 0.0222348 182.355 -2.76919e+06 5.62043e-11 -1.07232e-10 
2.36e-07 354.354 117596 -0.0133831 181.774 -2.77738e+06 -4.70639e-11 -7.97261e-11 
2.44e-07 355.637 117606 0.0154809 181.134 -2.76298e+06 -1.31155e-10 -7.72157e-11 
2.52e-07 356.775 117554 0.0183029 180.476 -2.77118e+06 -7.66847e-11 8.56686e-11 
2.6e-07 358.028 117594 -0.0177401 179.906 -2.77991e+06 -7.18077e-11 1.69405e-11 
2.68e-07 359.061 117624 0.0211137 179.435 -2.76986e+06 1.09747e-10 9.49485e-11 
2.76e-07 360.507 117668 -0.0174538 178.782 -2.76906e+06 1.29522e-10 2.87561e-11 
2.84e-07 361.725 117660 0.00471562 178.168 -2.77486e+06 -9.36731e-11 4.05941e-11 
2.92e-07 362.921 117656 -0.0108315 177.574 -2.7729e+06 -1.04662e-10 -1.87868e-12 
3e-07 364.14 117697 -0.00464855 177.042 -2.77605e+06 -5.53314e-11 -5.66385e-11 
3.08e-07 365.382 117688 -0.000867117 176.426 -2.77139e+06 -3.15335e-10 -9.97159e-11 
3.16e-07 366.646 117624 0.00137267 175.722 -2.77515e+06 -2.41589e-11 -7.43965e-11 
3.24e-07 367.888 117652 -0.0026674 175.171 -2.77875e+06 -2.84719e-10 -1.46535e-10 
3.32e-07 369.302 117737 0.00860612 174.626 -2.76808e+06 1.90647e-10 -7.55797e-11 
3.4e-07 370.648 117754 -0.020143 174.017 -2.77714e+06 -6.57705e-11 -9.65438e-11 
3.48e-07 372.047 117751 0.0322263 173.359 -2.76744e+06 2.61653e-11 -1.49335e-10 
3.56e-07 373.539 117827 -0.018268 172.777 -2.78075e+06 -2.37334e-11 1.50651e-11 
3.64e-07 375.07 117905 0.0220876 172.187 -2.77222e+06 2.79931e-10 -5.32789e-11 
3.72e-07 376.51 117909 -0.00396738 171.534 -2.77437e+06 -6.82269e-11 1.14206e-10 
3.8e-07 378.094 117978 -0.0213105 170.915 -2.77103e+06 -3.90658e-11 -5.38161e-11 
3.88e-07 380.095 118047 0.0149025 170.115 -2.76797e+06 3.4865e-11 -1.26909e-10 
3.96e-07 382.269 118140 0.00403737 169.28 -2.77961e+06 1.677e-10 9.32535e-11 
