ITEM: TIMESTEP
1000000
ITEM: NUMBER OF CELLS
50
ITEM: BOX BOUNDS pp ss pp
0 0.0001
0 4e-07
0 0.0001
ITEM: CELLS yc f_1a[1] f_1a[2] f_1a[3] f_1b[*] f_1c[*] f_1d[1] f_1d[2] 
4e-09 315.668 118544 -0.0156787 180.506 -2.79456e+06 -3.18816e-11 1.40042e-08 
1.2e-08 319.9 117776 0.00383193 187.988 -2.80981e+06 6.71903e-11 8.77105e-09 
2e-08 321.802 118125 -0.0935559 187.969 -2.81631e+06 9.54668e-11 1.02567e-08 
2.8e-08 323.669 118182 0.00255501 187.935 -2.80894e+06 1.17347e-10 1.00559e-08 
3.6e-08 325.343 118310 -0.00581497 188.098 -2.80921e+06 -7.21039e-11 1.04095e-08 
4.4e-08 327.031 118318 0.00949333 188.107 -2.81244e+06 2.12585e-11 1.05733e-08 
5.2e-08 328.716 118400 -0.0893851 188.113 -2.81022e+06 -1.88399e-10 1.03409e-08 
6e-08 330.393 118459 -0.00977215 188.083 -2.80909e+06 -1.55685e-11 1.01809e-08 
6.8e-08 331.861 118496 -0.0483465 188.197 -2.81003e+06 9.32608e-11 1.01353e-08 
7.6e-08 333.25 118528 -0.0112112 188.165 -2.81741e+06 7.15275e-11 1.00115e-08 
8.4e-08 334.665 118535 -0.00141244 188.243 -2.80281e+06 7.72848e-11 1.00765e-08 
9.2e-08 335.945 118617 -0.0292678 188.131 -2.81678e+06 -1.65684e-11 1.01847e-08 
1e-07 337.251 118635 -0.0447252 188.254 -2.80625e+06 8.09325e-11 1.0252e-08 
1.08e-07 338.747 118601 -0.0265793 188.198 -2.80471e+06 3.86653e-11 1.00528e-08 
1.16e-07 340.076 118599 -0.0450779 188.252 -2.82718e+06 1.64343e-10 9.85192e-09 
1.24e-07 341.311 118608 0.0179228 188.272 -2.79964e+06 -5.7154e-11 9.99622e-09 
1.32e-07 342.609 118578 0.00578309 188.23 -2.82083e+06 -2.77495e-11 1.01693e-08 
1.4e-07 343.94 118605 -0.0164004 188.338 -2.81423e+06 1.87432e-10 1.01328e-08 
1.48e-07 345.258 118669 -0.0271587 188.251 -2.80873e+06 2.01314e-10 9.99564e-09 
1.56e-07 346.516 118747 -0.0739245 188.347 -2.81333e+06 1.24866e-10 9.85206e-09 
1.64e-07 347.77 118793 0.0667875 188.314 -2.81303e+06 9.47676e-11 9.96182e-09 
1.72e-07 349.032 118698 -0.0414281 188.366 -2.81966e+06 3.03857e-11 1.01358e-08 
1.8e-07 350.333 118651 0.00685681 188.408 -2.80899e+06 -1.77113e-10 9.95666e-09 
1.88e-07 351.273 118675 -0.0239159 188.455 -2.81255e+06 1.20283e-10 1.0049e-08 
1.96e-07 352.462 118661 -0.0595327 188.431 -2.81595e+06 1.5256e-10 9.87279e-09 
2.04e-07 353.624 118669 -0.0300265 188.402 -2.813e+06 -1.89848e-10 9.54179e-09 
2.12e-07 354.899 118759 0.0266517 188.398 -2.81932e+06 -1.23231e-10 9.64074e-09 
2.2e-07 356.025 118672 -0.00581941 188.376 -2.81713e+06 1.72428e-10 9.67481e-09 
2.28e-07 357.073 118671 -0.039989 188.347 -2.80252e+06 1.32033e-10 9.73989e-09 
2.36e-07 358.39 118679 -0.00105429 188.491 -2.8234e+06 4.76155e-11 9.52366e-09 
2.44e-07 359.499 118730 -0.00352026 188.335 -2.80963e+06 -1.58282e-10 9.77457e-09 
2.52e-07 360.576 118668 -0.0410738 188.452 -2.8197e+06 -3.0188e-12 9.62666e-09 
2.6e-07 361.597 118729 -0.00910503 188.458 -2.80422e+06 1.67832e-10 9.54937e-09 
2.68e-07 362.959 118703 -0.00249564 188.48 -2.82667e+06 1.0947e-10 9.46107e-09 
2.76e-07 364.029 118767 -0.0375934 188.544 -2.81169e+06 1.16489e-10 9.4121e-09 
2.84e-07 365.3 118755 0.00594963 188.541 -2.81696e+06 2.20686e-11 9.28652e-09 
2.92e-07 366.528 118687 0.0323632 188.584 -2.8126e+06 5.58687e-11 9.56744e-09 
3e-07 367.886 118695 -0.0527365 188.523 -2.81347e+06 1.24803e-10 9.39635e-09 
3.08e-07 368.956 118780 0.00543736 188.66 -2.81266e+06 2.0449e-10 9.46602e-09 
3.16e-07 369.946 118800 -0.0208844 188.559 -2.81413e+06 1.19827e-10 9.48365e-09 
3.24e-07 371.223 118769 -0.00677595 188.645 -2.8208e+06 -1.46941e-10 9.35001e-09 
3.32e-07 372.411 118774 -0.0048731 188.575 -2.81693e+06 -1.28449e-10 9.38229e-09 
3.4e-07 373.716 118825 -0.0385221 188.63 -2.8036e+06 -5.08961e-11 9.18373e-09 
3.48e-07 375.04 118868 0.0241106 188.646 -2.82285e+06 1.06224e-10 9.16339e-09 
3.56e-07 376.338 118826 -0.0537817 188.576 -2.81266e+06 -4.43871e-11 9.32326e-09 
3.64e-07 377.631 118874 0.0166382 188.612 -2.81211e+06 -7.27044e-11 8.90917e-09 
3.72e-07 378.73 118967 -0.0125732 188.679 -2.82222e+06 1.84074e-10 9.09165e-09 
3.8e-07 380.362 118991 0.0084375 188.661 -2.81135e+06 -2.15262e-11 8.70685e-09 
3.88e-07 382.147 119079 -0.028206 188.207 -2.81903e+06 -1.04766e-10 8.15049e-09 
3.96e-07 383.489 119434 0.0507921 184.19 -2.82688e+06 1.33449e-10 1.01046e-08 
