ITEM: TIMESTEP
1000000
ITEM: NUMBER OF CELLS
50
ITEM: BOX BOUNDS pp ss pp
0 0.0001
0 4e-07
0 0.0001
ITEM: CELLS yc f_1a[1] f_1a[2] f_1a[3] f_1b[*] f_1c[*] f_1d[1] f_1d[2] 
4e-09 314.943 118810 0.471417 180.614 -2.88017e+06 -1.12526e-12 1.37619e-08 
1.2e-08 320.257 117757 -0.0196206 187.738 -2.8026e+06 -1.00542e-10 8.47344e-09 
2e-08 321.884 118091 -0.111714 187.887 -2.82138e+06 3.53962e-11 1.03744e-08 
2.8e-08 323.828 118086 -0.0611473 187.937 -2.80511e+06 9.43822e-11 9.99998e-09 
3.6e-08 325.558 118240 -0.0513861 187.938 -2.80968e+06 1.222e-10 1.00787e-08 
4.4e-08 327.145 118249 -0.0200462 188.007 -2.80603e+06 1.06591e-10 1.00011e-08 
5.2e-08 328.858 118344 -0.0456566 187.882 -2.81666e+06 3.22527e-11 1.0274e-08 
6e-08 330.475 118369 -0.049497 188.001 -2.80511e+06 -1.0856e-10 1.00793e-08 
6.8e-08 331.927 118466 -0.0891711 187.901 -2.82141e+06 -2.99239e-11 1.00326e-08 
7.6e-08 333.127 118464 -0.00608147 188.062 -2.80744e+06 -2.4049e-11 9.98333e-09 
8.4e-08 334.51 118453 -0.0658536 188.091 -2.81439e+06 -7.63014e-11 9.88922e-09 
9.2e-08 335.733 118519 -0.0345843 188.095 -2.81328e+06 -2.71626e-11 9.77383e-09 
1e-07 337.213 118536 -0.067105 188.087 -2.81644e+06 -1.97353e-10 9.75083e-09 
1.08e-07 338.706 118466 -0.000919631 188.204 -2.81259e+06 3.81477e-11 9.55906e-09 
1.16e-07 339.929 118592 0.00177126 188.137 -2.81094e+06 7.13177e-11 1.00245e-08 
1.24e-07 341.303 118559 -0.0647967 188.172 -2.81722e+06 -1.16533e-10 9.79858e-09 
1.32e-07 342.439 118619 -0.0198183 188.147 -2.80968e+06 9.74892e-12 9.79255e-09 
1.4e-07 343.926 118619 -0.0261444 188.206 -2.81882e+06 2.42418e-10 9.75315e-09 
1.48e-07 345.171 118668 -0.0164009 188.193 -2.81857e+06 -1.84488e-10 9.88384e-09 
1.56e-07 346.223 118654 -0.0093842 188.231 -2.8119e+06 3.35565e-11 9.78756e-09 
1.64e-07 347.576 118620 -0.0541227 188.241 -2.8121e+06 -1.85086e-11 9.68836e-09 
1.72e-07 348.714 118688 -0.0604809 188.262 -2.81713e+06 -4.45923e-12 9.58552e-09 
1.8e-07 349.936 118652 -0.012837 188.328 -2.80915e+06 -1.22318e-11 9.3629e-09 
1.88e-07 351.281 118722 -0.025265 188.39 -2.81793e+06 -9.49906e-11 9.60609e-09 
1.96e-07 352.345 118656 -0.00117344 188.269 -2.80794e+06 -2.60959e-11 9.9273e-09 
2.04e-07 353.66 118670 -0.0455527 188.327 -2.83009e+06 -1.23891e-10 9.74245e-09 
2.12e-07 354.661 118671 -0.00595263 188.306 -2.80563e+06 4.92845e-11 9.72921e-09 
2.2e-07 355.887 118680 -0.0497196 188.269 -2.82732e+06 -1.7647e-10 9.64157e-09 
2.28e-07 357.126 118701 -0.0341289 188.385 -2.81244e+06 -9.88988e-11 9.48353e-09 
2.36e-07 358.401 118776 -0.0109225 188.33 -2.82252e+06 -1.6721e-10 9.45728e-09 
2.44e-07 359.688 118713 -0.0173726 188.431 -2.8155e+06 8.06642e-11 9.48077e-09 
2.52e-07 360.808 118814 -0.020677 188.357 -2.80555e+06 3.89803e-12 9.50497e-09 
2.6e-07 361.973 118728 -0.0515306 188.374 -2.82605e+06 -7.4211e-11 9.28489e-09 
2.68e-07 363.098 118793 -0.0162531 188.421 -2.80565e+06 2.33834e-10 9.23695e-09 
2.76e-07 364.418 118756 -0.0138103 188.442 -2.81967e+06 3.49659e-10 9.23764e-09 
2.84e-07 365.525 118735 -0.00355198 188.458 -2.8182e+06 -1.12341e-10 9.15952e-09 
2.92e-07 366.711 118772 0.00872674 188.415 -2.808e+06 -2.23156e-10 9.53478e-09 
3e-07 367.846 118816 -0.0525198 188.432 -2.82386e+06 8.08565e-11 9.45819e-09 
3.08e-07 369.132 118847 -0.032734 188.538 -2.81645e+06 -1.18093e-10 9.26031e-09 
3.16e-07 370.141 118874 0.00697059 188.51 -2.8146e+06 4.35107e-11 9.30755e-09 
3.24e-07 371.224 118829 -0.0206828 188.625 -2.81939e+06 1.26216e-10 9.27124e-09 
3.32e-07 372.391 118841 -0.0236824 188.491 -2.82163e+06 1.95559e-11 9.34512e-09 
3.4e-07 373.938 118838 -0.0404402 188.558 -2.80993e+06 1.26438e-10 9.04177e-09 
3.48e-07 375.157 118939 -0.00929414 188.496 -2.8244e+06 2.18243e-10 9.11565e-09 
3.56e-07 376.324 118887 -0.0412084 188.639 -2.81543e+06 1.9451e-11 9.15957e-09 
3.64e-07 377.477 118869 0.00120122 188.584 -2.80468e+06 -2.63063e-11 8.81564e-09 
3.72e-07 379.024 118962 -0.0149112 188.584 -2.83024e+06 1.48165e-11 8.97917e-09 
3.8e-07 380.482 119025 0.00813785 188.505 -2.81505e+06 1.89722e-11 8.63905e-09 
3.88e-07 382.263 119046 -0.0575998 188.093 -2.80614e+06 1.33132e-10 8.03014e-09 
3.96e-07 383.063 119585 -0.239551 184.073 -2.80143e+06 -4.21015e-11 1.00942e-08 
