ITEM: TIMESTEP
0
ITEM: NUMBER OF CELLS
50
ITEM: BOX BOUNDS pp ss pp
0 0.0001
0 4e-07
0 0.0001
ITEM: CELLS yc f_1a[1] f_1a[2] f_1a[3] f_1b[*] f_1c[*] f_1d[1] f_1d[2] 
4e-09 0 0 0 0 0 0 0 
1.2e-08 0 0 0 0 0 0 0 
2e-08 0 0 0 0 0 0 0 
2.8e-08 0 0 0 0 0 0 0 
3.6e-08 0 0 0 0 0 0 0 
4.4e-08 0 0 0 0 0 0 0 
5.2e-08 0 0 0 0 0 0 0 
6e-08 0 0 0 0 0 0 0 
6.8e-08 0 0 0 0 0 0 0 
7.6e-08 0 0 0 0 0 0 0 
8.4e-08 0 0 0 0 0 0 0 
9.2e-08 0 0 0 0 0 0 0 
1e-07 0 0 0 0 0 0 0 
1.08e-07 0 0 0 0 0 0 0 
1.16e-07 0 0 0 0 0 0 0 
1.24e-07 0 0 0 0 0 0 0 
1.32e-07 0 0 0 0 0 0 0 
1.4e-07 0 0 0 0 0 0 0 
1.48e-07 0 0 0 0 0 0 0 
1.56e-07 0 0 0 0 0 0 0 
1.64e-07 0 0 0 0 0 0 0 
1.72e-07 0 0 0 0 0 0 0 
1.8e-07 0 0 0 0 0 0 0 
1.88e-07 0 0 0 0 0 0 0 
1.96e-07 0 0 0 0 0 0 0 
2.04e-07 0 0 0 0 0 0 0 
2.12e-07 0 0 0 0 0 0 0 
2.2e-07 0 0 0 0 0 0 0 
2.28e-07 0 0 0 0 0 0 0 
2.36e-07 0 0 0 0 0 0 0 
2.44e-07 0 0 0 0 0 0 0 
2.52e-07 0 0 0 0 0 0 0 
2.6e-07 0 0 0 0 0 0 0 
2.68e-07 0 0 0 0 0 0 0 
2.76e-07 0 0 0 0 0 0 0 
2.84e-07 0 0 0 0 0 0 0 
2.92e-07 0 0 0 0 0 0 0 
3e-07 0 0 0 0 0 0 0 
3.08e-07 0 0 0 0 0 0 0 
3.16e-07 0 0 0 0 0 0 0 
3.24e-07 0 0 0 0 0 0 0 
3.32e-07 0 0 0 0 0 0 0 
3.4e-07 0 0 0 0 0 0 0 
3.48e-07 0 0 0 0 0 0 0 
3.56e-07 0 0 0 0 0 0 0 
3.64e-07 0 0 0 0 0 0 0 
3.72e-07 0 0 0 0 0 0 0 
3.8e-07 0 0 0 0 0 0 0 
3.88e-07 0 0 0 0 0 0 0 
3.96e-07 0 0 0 0 0 0 0 
