ITEM: TIMESTEP
1000000
ITEM: NUMBER OF CELLS
50
ITEM: BOX BOUNDS pp ss pp
0 0.0001
0 4e-07
0 0.0001
ITEM: CELLS yc f_1a[1] f_1a[2] f_1a[3] f_1b[*] f_1c[*] f_1d[1] f_1d[2] 
4e-09 314.143 118931 0.327757 180.811 -2.85682e+06 1.98973e-10 1.75071e-08 
1.2e-08 319.906 117560 0.0171317 187.953 -2.81834e+06 7.53019e-11 1.05427e-08 
2e-08 321.418 118027 -0.0401056 188.154 -2.81559e+06 -9.14671e-11 1.30142e-08 
2.8e-08 323.371 118037 -0.0134927 188.193 -2.81578e+06 -3.19993e-10 1.31118e-08 
3.6e-08 325.165 118198 -0.0553059 188.289 -2.82003e+06 -9.00454e-11 1.31199e-08 
4.4e-08 326.7 118203 -0.0693195 188.194 -2.81011e+06 -2.80832e-11 1.288e-08 
5.2e-08 328.376 118274 -0.00885548 188.274 -2.81316e+06 -1.18501e-10 1.29319e-08 
6e-08 329.862 118259 -0.0675817 188.309 -2.81888e+06 -2.30483e-11 1.27512e-08 
6.8e-08 331.492 118339 0.0232625 188.267 -2.81493e+06 -1.39556e-10 1.28131e-08 
7.6e-08 332.975 118356 -0.059797 188.328 -2.81461e+06 1.0731e-10 1.29566e-08 
8.4e-08 334.402 118356 -0.0113862 188.298 -2.82121e+06 1.63436e-10 1.26514e-08 
9.2e-08 335.952 118458 -0.0031075 188.261 -2.81902e+06 6.70694e-11 1.27789e-08 
1e-07 337.199 118424 -0.0360312 188.444 -2.81377e+06 -9.00462e-11 1.27429e-08 
1.08e-07 338.45 118453 -0.0385499 188.424 -2.81887e+06 -2.23973e-10 1.26061e-08 
1.16e-07 339.722 118432 -0.0604752 188.473 -2.81068e+06 3.17532e-11 1.24808e-08 
1.24e-07 341.065 118487 -0.0122612 188.394 -2.83003e+06 -3.60125e-11 1.23583e-08 
1.32e-07 342.352 118464 0.00571887 188.424 -2.81475e+06 -9.6762e-11 1.25127e-08 
1.4e-07 343.708 118481 -0.0369955 188.414 -2.82511e+06 -4.73706e-12 1.24443e-08 
1.48e-07 345.114 118527 -0.0422942 188.455 -2.80881e+06 -1.26691e-10 1.22979e-08 
1.56e-07 346.153 118520 -0.0183135 188.469 -2.83285e+06 -7.55334e-11 1.21681e-08 
1.64e-07 347.227 118523 -0.000295652 188.541 -2.80683e+06 1.51403e-10 1.234e-08 
1.72e-07 348.62 118603 -0.0380752 188.555 -2.82276e+06 1.15128e-10 1.23733e-08 
1.8e-07 349.755 118570 -0.013872 188.59 -2.81671e+06 -1.36462e-10 1.21762e-08 
1.88e-07 350.991 118511 -0.000333592 188.558 -2.82718e+06 -4.76145e-11 1.22993e-08 
1.96e-07 352.273 118582 -0.0239323 188.594 -2.82979e+06 -3.74654e-11 1.22284e-08 
2.04e-07 353.255 118552 0.0138208 188.509 -2.81461e+06 1.31092e-10 1.22477e-08 
2.12e-07 354.522 118586 -0.0645925 188.594 -2.82072e+06 1.91691e-11 1.21187e-08 
2.2e-07 355.922 118585 -0.00741108 188.634 -2.81651e+06 -5.35033e-12 1.20258e-08 
2.28e-07 357.055 118662 -0.0149697 188.585 -2.82338e+06 -2.45366e-12 1.20972e-08 
2.36e-07 358.254 118653 0.022295 188.585 -2.822e+06 -1.08991e-10 1.22173e-08 
2.44e-07 359.491 118667 -0.064483 188.709 -2.81575e+06 1.20737e-10 1.20446e-08 
2.52e-07 360.429 118662 0.0443951 188.641 -2.82146e+06 5.529e-11 1.21009e-08 
2.6e-07 361.762 118668 -0.0563393 188.675 -2.82244e+06 1.73716e-11 1.22069e-08 
2.68e-07 362.849 118699 -0.0366196 188.647 -2.81216e+06 7.17553e-11 1.18538e-08 
2.76e-07 364.107 118700 -0.0380434 188.62 -2.82646e+06 1.15983e-10 1.19281e-08 
2.84e-07 365.272 118673 -0.0419792 188.697 -2.8161e+06 7.52317e-11 1.1551e-08 
2.92e-07 366.382 118669 0.0294727 188.648 -2.81501e+06 -6.45433e-12 1.18202e-08 
3e-07 367.746 118746 -0.0168016 188.822 -2.82524e+06 1.83909e-10 1.18624e-08 
3.08e-07 368.754 118759 -0.0334863 188.618 -2.82738e+06 3.95163e-11 1.1917e-08 
3.16e-07 369.899 118771 -0.028864 188.724 -2.80629e+06 -1.40177e-10 1.17461e-08 
3.24e-07 371.212 118779 -0.0101735 188.807 -2.83089e+06 3.45089e-11 1.16433e-08 
3.32e-07 372.456 118806 -0.0379549 188.744 -2.81267e+06 -4.33398e-11 1.1578e-08 
3.4e-07 373.773 118793 -0.00824503 188.817 -2.82572e+06 -2.58284e-11 1.1224e-08 
3.48e-07 374.926 118856 -0.00893479 188.805 -2.81237e+06 1.10364e-11 1.14019e-08 
3.56e-07 376.157 118827 -0.0315171 188.79 -2.82076e+06 -2.75024e-11 1.1161e-08 
3.64e-07 377.572 118915 0.048472 188.727 -2.82528e+06 1.03261e-10 1.12475e-08 
3.72e-07 378.851 118962 -0.027477 188.803 -2.81665e+06 8.6994e-12 1.12987e-08 
3.8e-07 380.347 118924 0.015935 188.786 -2.82671e+06 -1.04e-10 1.09947e-08 
3.88e-07 381.812 118932 -0.0443454 188.34 -2.8024e+06 -9.23628e-11 1.02208e-08 
3.96e-07 382.67 119617 -0.174653 184.438 -2.80639e+06 -1.18554e-10 1.29059e-08 
