ITEM: TIMESTEP
1000000
ITEM: NUMBER OF CELLS
50
ITEM: BOX BOUNDS pp ss pp
0 0.0001
0 4e-07
0 0.0001
ITEM: CELLS yc f_rho[1] f_rho[2] f_state[1] f_state[2] 
4e-09 182.23 2.49242e+25 300.07 103259 
1.2e-08 188.15 2.46522e+25 301.687 102683 
2e-08 188.491 2.46897e+25 301.798 102876 
2.8e-08 188.366 2.46657e+25 301.933 102822 
3.6e-08 188.314 2.46697e+25 301.953 102846 
4.4e-08 188.398 2.46477e+25 302.294 102870 
5.2e-08 188.277 2.46294e+25 302.366 102818 
6e-08 188.368 2.46304e+25 302.544 102883 
6.8e-08 188.366 2.46046e+25 302.807 102864 
7.6e-08 188.38 2.45846e+25 302.866 102801 
8.4e-08 188.361 2.46145e+25 302.733 102880 
9.2e-08 188.4 2.46003e+25 302.818 102850 
1e-07 188.415 2.46002e+25 302.927 102887 
1.08e-07 188.356 2.46029e+25 302.839 102868 
1.16e-07 188.389 2.45883e+25 302.993 102860 
1.24e-07 188.48 2.45791e+25 303.173 102882 
1.32e-07 188.448 2.45753e+25 303.275 102901 
1.4e-07 188.402 2.45559e+25 303.462 102883 
1.48e-07 188.374 2.45723e+25 303.41 102934 
1.56e-07 188.395 2.45508e+25 303.581 102902 
1.64e-07 188.365 2.45595e+25 303.551 102928 
1.72e-07 188.39 2.45506e+25 303.546 102889 
1.8e-07 188.456 2.45589e+25 303.574 102933 
1.88e-07 188.362 2.45514e+25 303.558 102897 
1.96e-07 188.468 2.45561e+25 303.594 102929 
2.04e-07 188.444 2.45651e+25 303.453 102918 
2.12e-07 188.425 2.45566e+25 303.579 102925 
2.2e-07 188.337 2.45515e+25 303.614 102916 
2.28e-07 188.51 2.4561e+25 303.684 102980 
2.36e-07 188.379 2.45537e+25 303.551 102904 
2.44e-07 188.508 2.45594e+25 303.44 102890 
2.52e-07 188.431 2.45713e+25 303.418 102933 
2.6e-07 188.403 2.45786e+25 303.354 102941 
2.68e-07 188.374 2.45716e+25 303.173 102851 
2.76e-07 188.443 2.4582e+25 303.04 102849 
2.84e-07 188.391 2.4579e+25 303.059 102843 
2.92e-07 188.371 2.4592e+25 303.065 102899 
3e-07 188.283 2.45934e+25 302.868 102838 
3.08e-07 188.456 2.4601e+25 302.803 102848 
3.16e-07 188.404 2.46135e+25 302.744 102880 
3.24e-07 188.273 2.46224e+25 302.704 102904 
3.32e-07 188.353 2.46165e+25 302.619 102850 
3.4e-07 188.339 2.46364e+25 302.454 102877 
3.48e-07 188.359 2.46418e+25 302.255 102832 
3.56e-07 188.324 2.46672e+25 302.2 102920 
3.64e-07 188.427 2.46632e+25 302.082 102862 
3.72e-07 188.389 2.46632e+25 301.966 102823 
3.8e-07 188.318 2.47054e+25 301.7 102908 
3.88e-07 188.093 2.46375e+25 301.793 102657 
3.96e-07 182.284 2.49409e+25 300.094 103336 
