ITEM: TIMESTEP
1000000
ITEM: NUMBER OF CELLS
50
ITEM: BOX BOUNDS pp ss pp
0 0.0001
0 4e-07
0 0.0001
ITEM: CELLS yc f_rho[1] f_rho[2] f_state[1] f_state[2] 
4e-09 185.068 2.46239e+25 299.881 101950 
1.2e-08 185.04 2.46201e+25 299.898 101941 
2e-08 185.065 2.46234e+25 299.896 101953 
2.8e-08 184.984 2.46127e+25 299.95 101927 
3.6e-08 185.077 2.4625e+25 300.016 102001 
4.4e-08 184.951 2.46083e+25 300.093 101958 
5.2e-08 185.006 2.46156e+25 300.028 101966 
6e-08 185.093 2.46271e+25 299.961 101991 
6.8e-08 185.07 2.4624e+25 299.941 101971 
7.6e-08 185.049 2.46213e+25 300.001 101980 
8.4e-08 185.041 2.46202e+25 300.015 101981 
9.2e-08 185.011 2.46162e+25 299.968 101948 
1e-07 185.12 2.46307e+25 299.906 101987 
1.08e-07 185.125 2.46314e+25 299.876 101980 
1.16e-07 185.124 2.46312e+25 299.951 102005 
1.24e-07 185.062 2.46229e+25 300.082 102015 
1.32e-07 185.152 2.4635e+25 300.054 102055 
1.4e-07 185.068 2.46238e+25 299.865 101945 
1.48e-07 185.154 2.46352e+25 299.809 101973 
1.56e-07 185.086 2.46263e+25 299.889 101963 
1.64e-07 185.027 2.46184e+25 300.075 101994 
1.72e-07 185.049 2.46213e+25 300.052 101998 
1.8e-07 185.076 2.46248e+25 299.998 101994 
1.88e-07 185.035 2.46195e+25 300.032 101983 
1.96e-07 185.035 2.46194e+25 300.09 102003 
2.04e-07 184.917 2.46037e+25 300.165 101963 
2.12e-07 184.987 2.4613e+25 300.061 101966 
2.2e-07 184.948 2.46078e+25 300.031 101935 
2.28e-07 184.975 2.46114e+25 300.127 101982 
2.36e-07 184.847 2.45944e+25 300.218 101943 
2.44e-07 184.936 2.46063e+25 300.218 101992 
2.52e-07 184.981 2.46122e+25 300.266 102033 
2.6e-07 184.866 2.45969e+25 300.295 101979 
2.68e-07 184.899 2.46013e+25 300.268 101988 
2.76e-07 184.885 2.45994e+25 300.18 101951 
2.84e-07 184.968 2.46105e+25 300.145 101985 
2.92e-07 184.945 2.46075e+25 300.094 101955 
3e-07 184.973 2.46112e+25 300.071 101962 
3.08e-07 184.946 2.46076e+25 300.181 101985 
3.16e-07 184.916 2.46035e+25 300.129 101950 
3.24e-07 184.964 2.461e+25 300.085 101962 
3.32e-07 184.966 2.46103e+25 300.099 101968 
3.4e-07 184.921 2.46042e+25 300.032 101920 
3.48e-07 184.909 2.46027e+25 300.216 101976 
3.56e-07 184.902 2.46017e+25 300.129 101943 
3.64e-07 184.899 2.46013e+25 300.134 101943 
3.72e-07 184.901 2.46017e+25 300.212 101971 
3.8e-07 185.026 2.46182e+25 299.943 101948 
3.88e-07 184.973 2.46112e+25 300.116 101978 
3.96e-07 184.983 2.46126e+25 300.093 101975 
