ITEM: TIMESTEP
1000000
ITEM: NUMBER OF CELLS
50
ITEM: BOX BOUNDS pp ss pp
0 0.0001
0 4e-07
0 0.0001
ITEM: CELLS yc f_rho[1] f_rho[2] f_state[1] f_state[2] 
4e-09 180.716 2.46861e+25 301.851 102879 
1.2e-08 186.837 2.47e+25 302.059 103008 
2e-08 187.063 2.46733e+25 302.291 102976 
2.8e-08 187.122 2.46541e+25 302.621 103008 
3.6e-08 186.896 2.46757e+25 302.548 103074 
4.4e-08 187.083 2.4664e+25 302.816 103116 
5.2e-08 186.986 2.46428e+25 303.106 103126 
6e-08 186.914 2.46349e+25 303.121 103098 
6.8e-08 187.034 2.46318e+25 303.234 103123 
7.6e-08 186.933 2.46275e+25 303.182 103088 
8.4e-08 187.052 2.46265e+25 303.285 103119 
9.2e-08 186.924 2.46139e+25 303.366 103093 
1e-07 187.006 2.46107e+25 303.434 103103 
1.08e-07 187.081 2.46097e+25 303.497 103120 
1.16e-07 186.984 2.46075e+25 303.573 103137 
1.24e-07 187.043 2.45896e+25 303.825 103147 
1.32e-07 187.051 2.45979e+25 303.877 103200 
1.4e-07 187.02 2.46011e+25 303.805 103189 
1.48e-07 187.117 2.46056e+25 303.709 103175 
1.56e-07 186.985 2.45908e+25 303.788 103140 
1.64e-07 187.109 2.45933e+25 303.82 103161 
1.72e-07 186.987 2.45743e+25 303.976 103135 
1.8e-07 186.979 2.45728e+25 303.959 103122 
1.88e-07 187.161 2.45653e+25 304.049 103121 
1.96e-07 186.99 2.4572e+25 304.026 103142 
2.04e-07 187.053 2.45778e+25 303.926 103132 
2.12e-07 187.106 2.45723e+25 303.849 103083 
2.2e-07 187.075 2.45734e+25 303.955 103124 
2.28e-07 187.099 2.45706e+25 304.04 103141 
2.36e-07 186.994 2.45712e+25 303.962 103117 
2.44e-07 187.001 2.45743e+25 303.932 103119 
2.52e-07 187.047 2.45876e+25 303.946 103180 
2.6e-07 186.998 2.45863e+25 303.821 103132 
2.68e-07 186.953 2.45743e+25 304.013 103147 
2.76e-07 186.959 2.4582e+25 303.919 103147 
2.84e-07 187.045 2.45867e+25 303.807 103129 
2.92e-07 186.949 2.45997e+25 303.8 103181 
3e-07 186.951 2.4595e+25 303.761 103148 
3.08e-07 187.033 2.461e+25 303.636 103169 
3.16e-07 186.87 2.46106e+25 303.641 103173 
3.24e-07 186.979 2.46077e+25 303.488 103109 
3.32e-07 186.931 2.46298e+25 303.4 103172 
3.4e-07 186.935 2.46287e+25 303.317 103139 
3.48e-07 187.035 2.46456e+25 303.162 103156 
3.56e-07 186.996 2.46393e+25 303.054 103094 
3.64e-07 187.037 2.46439e+25 302.888 103056 
3.72e-07 186.984 2.46497e+25 302.697 103016 
3.8e-07 187.118 2.46621e+25 302.476 102992 
3.88e-07 186.863 2.46799e+25 302.295 103005 
3.96e-07 180.808 2.46585e+25 302.11 102852 
