ITEM: TIMESTEP
1000000
ITEM: NUMBER OF CELLS
50
ITEM: BOX BOUNDS pp ss pp
0 0.0001
0 4e-07
0 0.0001
ITEM: CELLS yc f_rho[1] f_rho[2] f_state[1] f_state[2] 
4e-09 182.486 2.50097e+25 299.464 103404 
1.2e-08 188.137 2.4637e+25 301.652 102607 
2e-08 188.453 2.47063e+25 301.516 102849 
2.8e-08 188.553 2.46618e+25 301.853 102779 
3.6e-08 188.476 2.46501e+25 302.046 102796 
4.4e-08 188.584 2.46388e+25 302.206 102803 
5.2e-08 188.502 2.4644e+25 302.398 102890 
6e-08 188.416 2.46395e+25 302.433 102883 
6.8e-08 188.58 2.46343e+25 302.549 102901 
7.6e-08 188.517 2.46111e+25 302.712 102860 
8.4e-08 188.562 2.46173e+25 302.789 102911 
9.2e-08 188.585 2.46041e+25 302.909 102897 
1e-07 188.528 2.45951e+25 302.987 102886 
1.08e-07 188.442 2.45888e+25 302.964 102852 
1.16e-07 188.538 2.46008e+25 302.975 102906 
1.24e-07 188.674 2.45724e+25 303.083 102824 
1.32e-07 188.443 2.45821e+25 303.02 102843 
1.4e-07 188.598 2.45853e+25 303.037 102862 
1.48e-07 188.502 2.45879e+25 303.131 102905 
1.56e-07 188.589 2.45613e+25 303.331 102861 
1.64e-07 188.444 2.45802e+25 303.207 102898 
1.72e-07 188.569 2.45762e+25 303.275 102905 
1.8e-07 188.608 2.45756e+25 303.162 102863 
1.88e-07 188.597 2.45668e+25 303.378 102900 
1.96e-07 188.537 2.45776e+25 303.208 102888 
2.04e-07 188.513 2.45497e+25 303.392 102833 
2.12e-07 188.571 2.45664e+25 303.284 102867 
2.2e-07 188.585 2.45406e+25 303.273 102755 
2.28e-07 188.552 2.45482e+25 303.376 102822 
2.36e-07 188.648 2.45623e+25 303.228 102830 
2.44e-07 188.669 2.45466e+25 303.28 102782 
2.52e-07 188.605 2.45445e+25 303.335 102792 
2.6e-07 188.586 2.45493e+25 303.268 102789 
2.68e-07 188.598 2.45523e+25 303.243 102793 
2.76e-07 188.626 2.45614e+25 303.124 102791 
2.84e-07 188.493 2.45834e+25 303.106 102877 
2.92e-07 188.486 2.45761e+25 303.06 102831 
3e-07 188.57 2.45936e+25 302.874 102841 
3.08e-07 188.47 2.4591e+25 302.869 102829 
3.16e-07 188.568 2.46071e+25 302.672 102829 
3.24e-07 188.697 2.45912e+25 302.759 102792 
3.32e-07 188.639 2.46218e+25 302.654 102885 
3.4e-07 188.539 2.46179e+25 302.596 102849 
3.48e-07 188.46 2.46198e+25 302.43 102800 
3.56e-07 188.469 2.46301e+25 302.146 102746 
3.64e-07 188.63 2.46391e+25 302.061 102755 
3.72e-07 188.497 2.46563e+25 301.899 102771 
3.8e-07 188.535 2.46799e+25 301.698 102802 
3.88e-07 188.16 2.46118e+25 301.865 102574 
3.96e-07 182.441 2.49934e+25 299.777 103444 
