ITEM: TIMESTEP
1000000
ITEM: NUMBER OF CELLS
50
ITEM: BOX BOUNDS pp ss pp
0 0.0001
0 4e-07
0 0.0001
ITEM: CELLS yc f_rho[1] f_rho[2] f_state[1] f_state[2] 
4e-09 180.802 2.46926e+25 301.807 102892 
1.2e-08 186.932 2.4661e+25 302.139 102873 
2e-08 186.873 2.46502e+25 302.465 102939 
2.8e-08 187.106 2.46572e+25 302.622 103021 
3.6e-08 187.064 2.46522e+25 302.558 102979 
4.4e-08 186.968 2.46372e+25 302.757 102984 
5.2e-08 187.068 2.46199e+25 303.033 103005 
6e-08 186.935 2.46413e+25 303.086 103113 
6.8e-08 186.994 2.46334e+25 303.152 103102 
7.6e-08 187.13 2.46213e+25 303.27 103091 
8.4e-08 186.995 2.46298e+25 303.361 103158 
9.2e-08 187.036 2.46145e+25 303.261 103060 
1e-07 187.025 2.46074e+25 303.429 103088 
1.08e-07 186.998 2.4616e+25 303.478 103141 
1.16e-07 187.078 2.46039e+25 303.601 103131 
1.24e-07 187.014 2.45918e+25 303.83 103159 
1.32e-07 187.05 2.45914e+25 303.632 103090 
1.4e-07 187.074 2.4591e+25 303.808 103147 
1.48e-07 187.021 2.4579e+25 303.767 103083 
1.56e-07 187.091 2.45822e+25 303.889 103138 
1.64e-07 187.013 2.45589e+25 303.992 103075 
1.72e-07 187.013 2.45668e+25 303.836 103056 
1.8e-07 187.026 2.45757e+25 303.92 103121 
1.88e-07 187.056 2.45767e+25 303.891 103116 
1.96e-07 187.021 2.45735e+25 303.92 103112 
2.04e-07 186.984 2.45746e+25 303.996 103143 
2.12e-07 187 2.45654e+25 303.891 103068 
2.2e-07 187.041 2.45548e+25 304.044 103076 
2.28e-07 187.094 2.45756e+25 303.922 103121 
2.36e-07 187.164 2.45858e+25 303.858 103143 
2.44e-07 186.934 2.45912e+25 303.795 103144 
2.52e-07 187.042 2.4596e+25 303.711 103135 
2.6e-07 187.083 2.45973e+25 303.727 103146 
2.68e-07 187.086 2.46039e+25 303.824 103207 
2.76e-07 186.966 2.46106e+25 303.616 103165 
2.84e-07 186.932 2.46054e+25 303.615 103142 
2.92e-07 186.891 2.45945e+25 303.657 103111 
3e-07 187.007 2.46118e+25 303.413 103101 
3.08e-07 187.014 2.46149e+25 303.443 103124 
3.16e-07 187.018 2.46211e+25 303.343 103116 
3.24e-07 186.922 2.46173e+25 303.236 103063 
3.32e-07 187.041 2.46399e+25 303.089 103108 
3.4e-07 186.969 2.46414e+25 302.832 103027 
3.48e-07 187.053 2.46458e+25 302.925 103077 
3.56e-07 186.962 2.46375e+25 302.957 103053 
3.64e-07 186.977 2.46494e+25 302.676 103007 
3.72e-07 187.084 2.46673e+25 302.663 103078 
3.8e-07 186.972 2.46508e+25 302.527 102962 
3.88e-07 186.991 2.46609e+25 302.509 102999 
3.96e-07 180.698 2.47001e+25 301.866 102943 
