ITEM: TIMESTEP
1000000
ITEM: NUMBER OF CELLS
50
ITEM: BOX BOUNDS pp ss pp
0 0.0001
0 4e-07
0 0.0001
ITEM: CELLS yc f_vel[1] f_vel[2] f_mom[1] f_mom[2] f_mom[3] f_mom[4] f_q[1] f_q[2] f_q[3] 
4e-09 2.17148 -0.044273 103404 102924 103448 -816.15 44361.1 1460.48 10206.6 
1.2e-08 2.76987 0.0481925 102562 102939 102547 -806.754 37975.4 -11031.7 -7756.34 
2e-08 3.10653 -0.0174248 102827 102951 102852 -796.31 29322.8 -15671.3 -786.243 
2.8e-08 3.4288 -0.0399314 102824 102889 102754 -810.36 52685.6 -8119.69 -24439.1 
3.6e-08 3.72401 -0.0398928 102836 102906 102796 -818.191 37980.2 -10170.4 -25865.3 
4.4e-08 4.05148 0.0194472 102829 102923 102858 -789.318 30487.9 -3936.61 -5834.13 
5.2e-08 4.43439 -0.0246621 102781 102903 102770 -819.209 23217.2 -13658.1 2652.78 
6e-08 4.92958 -0.0212784 102896 102941 102812 -800.242 9189.67 -3362.38 358.117 
6.8e-08 5.32938 0.0231049 102831 102921 102842 -812.72 -9761.26 -12977.5 -7889.51 
7.6e-08 5.54355 -0.00649247 102698 102932 102773 -815.418 2026.07 -13211.8 -5323 
8.4e-08 5.9694 -0.0195011 102870 102902 102870 -803.663 -6519.1 -2837.79 27282.1 
9.2e-08 6.29339 -0.00816326 102834 102907 102808 -798.88 -5128.36 -16730.9 -13910.9 
1e-07 6.61705 0.0146555 102855 102929 102878 -804.022 -15208.8 -7210.24 6092.16 
1.08e-07 6.90896 0.00920154 102840 102942 102822 -815.653 -1083.88 -5791.81 5310.43 
1.16e-07 7.12932 0.0160595 102815 102917 102846 -811.557 -15290.7 -14414.1 -8213.56 
1.24e-07 7.46583 0.0179618 102861 102915 102870 -799.221 -21914.9 -2588 -5007.25 
1.32e-07 7.60695 -0.0455314 102896 102928 102878 -824.819 -9465.92 -17111.8 92.4593 
1.4e-07 7.991 0.0106948 102844 102911 102894 -795.091 -16662.2 -2002.6 22299.8 
1.48e-07 8.3609 0.0336455 102930 102914 102958 -803.27 -25381.7 -4790.43 17738.6 
1.56e-07 8.71688 -0.0351164 102884 102908 102913 -815.263 -8717.14 -14351.3 -6682.82 
1.64e-07 9.02199 -0.00752725 102926 102934 102924 -811.915 -9304.49 -3809.17 25426 
1.72e-07 9.11778 0.0201186 102904 102901 102862 -804.91 7460.74 -5855.87 38617.6 
1.8e-07 9.43557 0.00310322 102990 102969 102842 -826.314 -4220.7 -8393.26 22233.5 
1.88e-07 9.71468 -0.0118826 102945 102887 102857 -804.057 -15969 -2701.1 11134 
1.96e-07 9.93982 0.0165751 102970 102940 102875 -786.999 7138.62 -7461.57 3881.92 
2.04e-07 10.2682 -0.0221599 102928 102889 102939 -819.206 -15662.7 -7949.59 9472.53 
2.12e-07 10.7136 0.0113918 102927 102938 102912 -821.641 -23839.5 -3742.93 11002.6 
2.2e-07 11.0142 0.00237064 102934 102936 102878 -798.762 -23965.9 -8092.19 16461.9 
2.28e-07 11.2642 -0.0102887 102977 102914 103048 -804.322 -13547.5 -5918.34 37982.3 
2.36e-07 11.4609 0.00604312 102859 102927 102924 -809.308 -7052.04 -559.46 31954 
2.44e-07 11.7116 -0.00413961 102883 102886 102902 -812.376 -9876.88 -8349.83 5000.33 
2.52e-07 12.1822 0.00830844 102906 102946 102945 -816.524 -25593.1 -2209.9 25192.3 
2.6e-07 12.4125 0.00489703 102944 102971 102909 -817.4 -5705.11 -6134.97 21718.8 
2.68e-07 12.5312 -0.00598803 102915 102878 102759 -785.68 -4770.21 -3826.36 29154.6 
2.76e-07 12.8587 -0.00504053 102882 102928 102738 -801.62 -7267.03 -4404.77 18863.2 
2.84e-07 13.226 -0.0052695 102871 102905 102753 -808.316 -1807.24 2326.54 17499.6 
2.92e-07 13.5408 0.0232474 102896 102936 102866 -799.721 -29645.7 -8691.95 6836.06 
3e-07 13.9296 0.0028056 102820 102892 102803 -824.528 -27448.1 -3448.32 9374.16 
3.08e-07 14.1272 -0.00837889 102760 102944 102840 -804.768 -23759.2 1612.11 25676 
3.16e-07 14.5175 -0.00140543 102917 102928 102796 -819.516 -29735.6 -1696.28 16802.2 
3.24e-07 14.8163 0.011481 102948 102917 102846 -804.325 -5505.28 -4704.43 -5389.36 
3.32e-07 15.0194 0.0081651 102842 102924 102785 -808.194 -15400 -591.157 -10378.2 
3.4e-07 15.342 -0.0211288 102876 102917 102839 -800.87 -9313.55 1990.44 -17153.1 
3.48e-07 15.5875 0.00991721 102814 102927 102756 -823.139 -2443.46 -4241.02 -7364.1 
3.56e-07 15.9032 0.00269667 102940 102924 102895 -808.038 -15490.7 -6972.75 -22843.2 
3.64e-07 16.1884 0.00663158 102864 102903 102821 -803.554 1625.21 1820.86 -10102.6 
3.72e-07 16.7788 0.035719 102830 102890 102748 -816.859 -40921.2 -2780.74 -27942 
3.8e-07 17.0734 0.0082526 102902 102943 102880 -800.589 -27387.7 -8455.9 -5419.55 
3.88e-07 17.4073 0.00823206 102567 102905 102501 -811.689 -21646.6 4927.91 -869.944 
3.96e-07 17.8594 0.0978519 103526 102945 103538 -817.738 -33087.2 -15798.2 -7921.85 
