ITEM: TIMESTEP
1000000
ITEM: NUMBER OF CELLS
50
ITEM: BOX BOUNDS pp ss pp
0 0.0001
0 4e-07
0 0.0001
ITEM: CELLS yc f_vel[1] f_vel[2] f_mom[1] f_mom[2] f_mom[3] f_mom[4] f_q[1] f_q[2] f_q[3] 
4e-09 2.216 -0.060818 103675 102885 103651 -821.189 30102.9 -418.906 15473.2 
1.2e-08 2.64966 0.0150577 102540 102923 102358 -823.658 42020.6 -14408.2 15373.6 
2e-08 2.97236 0.00916208 102803 102909 102835 -827.29 26552.7 -7275.5 19870.9 
2.8e-08 3.44035 -0.0271045 102690 102886 102760 -812.976 4749.57 -10699.5 6752.71 
3.6e-08 3.73104 -0.0109085 102702 102936 102749 -820.112 4754.67 -10294.4 7623.25 
4.4e-08 4.09957 0.0184383 102746 102894 102769 -831.374 13841.1 -13123.6 31506.1 
5.2e-08 4.29824 0.0070704 102920 102907 102844 -842.931 14823.5 -11736.7 6925.26 
6e-08 4.62603 -0.0128759 102885 102909 102856 -832.29 15472.2 -10902.9 -6600.03 
6.8e-08 4.91437 -0.0176919 102932 102891 102880 -816.351 20198.4 -8567.49 -19165 
7.6e-08 5.36379 0.0247331 102840 102888 102851 -822.96 17632.2 -6638.3 8151.9 
8.4e-08 5.70184 0.00547278 102904 102915 102915 -829.433 743.544 -11578.8 18600.5 
9.2e-08 6.05381 -0.0120246 102923 102905 102862 -837.757 -18036.4 -9549.75 13474.8 
1e-07 6.39473 -0.00151753 102893 102911 102854 -818.139 -6942.72 -7150.87 16873.8 
1.08e-07 6.56453 -0.0226634 102780 102900 102875 -824.675 -6186.2 -6885.09 10957.2 
1.16e-07 6.97192 0.0153562 102890 102914 102912 -817.714 -21091.4 -5753.95 7500.63 
1.24e-07 7.2533 0.00832109 102781 102920 102770 -825.381 -3717.05 -7469.52 4071.98 
1.32e-07 7.4729 -0.0141165 102846 102882 102800 -822.5 -6343.24 -6330.97 -10855.5 
1.4e-07 7.79508 -0.0262594 102826 102904 102856 -820.724 -29440.7 -8007.34 -7520.98 
1.48e-07 8.12815 0.0156338 102918 102899 102897 -849.601 -18807.2 -3515.56 -10084.9 
1.56e-07 8.27918 -0.00137319 102834 102904 102845 -803.272 -14658.6 -6597.76 -18029.4 
1.64e-07 8.66333 0.0181189 102904 102899 102891 -830.62 -3626.25 -6702.2 -8410.35 
1.72e-07 8.95386 0.00522893 102924 102921 102868 -820.036 -4203.24 -7075.44 -8770.36 
1.8e-07 9.37354 -0.0106801 102831 102896 102863 -840.87 4232.2 -1654.85 7736.85 
1.88e-07 9.5967 -0.014797 102817 102917 102967 -818.743 2639.02 -6677.21 -1917.84 
1.96e-07 9.91973 -0.0322867 102850 102897 102915 -824.265 -18355.1 -5575.32 -7539.77 
2.04e-07 10.2166 0.0197384 102744 102906 102849 -819.396 -18864.3 -5363.04 -14467.1 
2.12e-07 10.4515 -0.0232304 102818 102911 102871 -835.084 -16969.5 -3503.83 18677.5 
2.2e-07 10.792 0.0286296 102640 102883 102741 -806.283 -7589.68 703.718 -432.132 
2.28e-07 11.2347 -0.000554673 102822 102940 102703 -821.977 -35859.9 -2212.34 -4002.03 
2.36e-07 11.3935 -0.00797968 102849 102885 102757 -841.985 -42635.2 -5872.51 11197.2 
2.44e-07 11.716 -0.0295326 102732 102907 102708 -818.406 -18960 79.9645 3013.16 
2.52e-07 11.9143 0.024163 102682 102905 102790 -827.729 -2998.57 -5155.56 4805.94 
2.6e-07 12.2866 0.00261566 102747 102897 102724 -829.602 -11950.1 -3152.63 -2967.85 
2.68e-07 12.5393 0.0113588 102729 102921 102730 -821.015 -13334.6 -7899.11 -15788.8 
2.76e-07 12.8974 -0.0158437 102769 102867 102737 -825.423 -15692.8 2042.01 -5326.03 
2.84e-07 13.2268 -0.00175262 102816 102935 102881 -841.235 -15885.6 -4890.98 7798.17 
2.92e-07 13.666 0.0136745 102772 102913 102808 -818.344 -39449.3 -2184.88 7790.79 
3e-07 13.9135 -0.0255705 102812 102885 102827 -828.875 -25109.5 -2562.52 -9851.68 
3.08e-07 14.1934 0.0325348 102749 102902 102835 -823.812 -15386.3 -6482.99 -13194.6 
3.16e-07 14.4304 0.00929501 102763 102903 102822 -835.609 -30758 1612.88 11232.4 
3.24e-07 14.7561 0.0107359 102791 102906 102679 -821.96 -19165.4 -5818.7 494.094 
3.32e-07 15.0514 0.0226257 102843 102915 102896 -820.598 -40611.6 965.113 -104.616 
3.4e-07 15.26 -0.00805416 102721 102924 102901 -825.48 -35199.8 -6892.25 -10667.3 
3.48e-07 15.5835 -0.0109413 102723 102888 102789 -830.662 -23320.8 2106.54 -6251.96 
3.56e-07 15.9097 0.0339588 102646 102902 102692 -818.525 -20603.8 -1070.31 -21538.7 
3.64e-07 16.1127 -0.0400941 102685 102929 102652 -824.551 -16892 5700.1 -8022.54 
3.72e-07 16.4589 0.00397621 102730 102864 102721 -821.371 -36523.2 -8280.39 -19318.4 
3.8e-07 16.8452 0.00848818 102784 102925 102696 -834.458 -41048.4 4130.76 -19613.9 
3.88e-07 17.2664 8.55372e-05 102468 102884 102371 -827.363 -49896.9 -639.394 -29390.3 
3.96e-07 17.8233 0.0371731 103679 102908 103746 -814.96 -64013.1 -15893.2 11584.8 
