ITEM: TIMESTEP
1000000
ITEM: NUMBER OF CELLS
50
ITEM: BOX BOUNDS pp ss pp
0 0.0001
0 4e-07
0 0.0001
ITEM: CELLS yc f_vel[1] f_vel[2] f_mom[1] f_mom[2] f_mom[3] f_mom[4] f_q[1] f_q[2] f_q[3] 
4e-09 2.40824 0.283406 102745 103147 102782 -822.852 39824 -39454.6 -15152.6 
1.2e-08 2.89897 -0.0104756 102761 103128 102730 -820.523 3379.5 -23452.5 -6346.88 
2e-08 3.17171 -0.0226574 102868 103039 102909 -830.701 17387.5 -12783.5 -16834.2 
2.8e-08 3.45489 0.0200178 102969 103089 103006 -812.993 16458.5 -21815.7 -23848.9 
3.6e-08 3.84148 -0.0194958 102951 103073 102913 -832.654 20618.3 -14407.5 -17581.2 
4.4e-08 4.30959 -0.0309209 102924 103080 102947 -803.88 16068.4 -16078.2 -30549.2 
5.2e-08 4.68375 0.0221049 103004 103060 102953 -832.134 -6135.13 -16912.8 -30623 
6e-08 4.89963 0.0131913 103135 103097 103107 -809.905 16811.1 -13882.1 -26201.2 
6.8e-08 5.2621 -0.0337933 103136 103076 103094 -838.321 10494.4 -19547 -15121.1 
7.6e-08 5.45114 0.0217735 103102 103074 103098 -818.575 5052.77 -14830.3 -23430.9 
8.4e-08 5.86978 -0.0179918 103172 103089 103214 -816.345 11444.8 -19029.6 -16819.9 
9.2e-08 6.1619 -0.0125497 103099 103036 103046 -839.675 -11240.1 -15053.2 11688.3 
1e-07 6.51342 -0.00570343 103088 103079 103096 -829.603 -3192.59 -15629.6 595.14 
1.08e-07 6.81031 0.0126216 103151 103098 103172 -813.976 -14337.9 -16231.9 -4821.82 
1.16e-07 7.10508 -0.0218212 103187 103063 103144 -816.694 -12145.4 -19675.1 -11427.3 
1.24e-07 7.38102 0.0135536 103236 103089 103151 -821.061 4236.55 -5828.84 -14366.4 
1.32e-07 7.73718 -0.0231371 103105 103073 103090 -813.014 -4305.55 -19977.1 -4120.93 
1.4e-07 8.03406 -0.0167962 103193 103097 103152 -810.754 11722.4 -15848.8 -15900.9 
1.48e-07 8.2513 0.0088038 103086 103060 103104 -834.336 4646.78 -9179.73 -12454.6 
1.56e-07 8.59437 -0.000574708 103206 103075 103134 -828.108 -23539.6 -14353.8 1005.03 
1.64e-07 9.07395 -0.00899048 103089 103072 103065 -804.282 -21192.9 -17069 1941.62 
1.72e-07 9.25608 0.0144517 103071 103075 103020 -819.093 -22225 -17208.1 380.573 
1.8e-07 9.4661 -0.0273026 103170 103079 103115 -815.153 3601.47 -6781.21 -5148.38 
1.88e-07 9.76929 0.017347 103146 103081 103120 -822.005 -2123.94 -16611.2 21143 
1.96e-07 10.0959 0.0104026 103152 103060 103125 -826.192 -14600.2 -13403.1 -2210.83 
2.04e-07 10.314 0.0165092 103191 103097 103140 -815.091 -33432.7 -18956.2 -3409.53 
2.12e-07 10.7052 -0.0253591 103065 103082 103058 -841.525 -2901.77 -4996.17 3050.83 
2.2e-07 10.8884 0.0236185 103047 103053 103127 -814.211 -21462.9 -15239.6 -2654.02 
2.28e-07 11.2084 -0.0294747 103140 103064 103161 -812.702 -30719.6 -11419.7 9149.58 
2.36e-07 11.3944 0.0125185 103159 103092 103177 -817.715 -27897.9 -7782.02 7197.98 
2.44e-07 11.7732 0.00395753 103203 103086 103142 -824.48 -2397.63 -14668.6 16714.9 
2.52e-07 11.9846 -0.0291981 103169 103060 103177 -817.365 1608.05 -8172.77 3798.33 
2.6e-07 12.4764 -0.0576748 103166 103092 103180 -803.104 -41477.8 -7282.75 1507.38 
2.68e-07 12.6465 0.0542492 103268 103067 103285 -828.931 -17230.9 -11217.2 2249.54 
2.76e-07 12.9491 -0.0214863 103183 103068 103243 -824.881 -11395.2 -10238.7 -7648.5 
2.84e-07 13.4596 0.0273634 103132 103094 103200 -814.888 -27091.1 -16954.5 -7019.56 
2.92e-07 13.8275 0.025293 103124 103052 103158 -840.577 -33623.8 -10739.2 -23181.9 
3e-07 14.0421 0.00694212 103079 103082 103140 -808.779 -25779.3 -18336.3 -15036.2 
3.08e-07 14.375 -0.000649709 103100 103087 103184 -805.773 -31966.8 -7484.84 -5964.06 
3.16e-07 14.7372 0.0406532 103123 103085 103139 -831.26 -41236.8 -5078.74 -21755.5 
3.24e-07 14.853 -0.0117325 103103 103065 103022 -815.824 -25774.6 -14652.4 -25628.3 
3.32e-07 15.0819 -0.00333722 103135 103088 103100 -829.205 -42692.9 -7783.7 -23289.9 
3.4e-07 15.439 -0.00714871 103035 103061 102985 -820.396 -40357.4 -8193.11 -26329 
3.48e-07 15.8581 0.0128907 103057 103083 103090 -820.951 -40478.8 -5648.83 -6203.98 
3.56e-07 16.0532 -0.016366 103052 103090 103016 -821.623 -33694.3 -9916.2 3783.51 
3.64e-07 16.451 0.059075 102971 103044 103007 -817.809 -62151.3 -7606.19 -15763.5 
3.72e-07 16.7002 -0.00608773 103059 103108 103066 -824.615 -41294.9 -10345.6 6234.6 
3.8e-07 17.1417 0.00190903 102881 103039 102967 -812.656 -66118.2 7747.53 -1904.87 
3.88e-07 17.4048 0.0235863 102877 103125 102994 -826.674 -66175.2 -17350.9 16329.8 
3.96e-07 17.8255 -0.326657 102797 103127 102905 -818.69 -67031 23449.3 20422.7 
