ITEM: TIMESTEP
1000000
ITEM: NUMBER OF CELLS
50
ITEM: BOX BOUNDS pp ss pp
0 0.0001
0 4e-07
0 0.0001
ITEM: CELLS yc f_vel[1] f_vel[2] f_mom[1] f_mom[2] f_mom[3] f_mom[4] f_q[1] f_q[2] f_q[3] 
4e-09 2.19709 -0.0477213 101961 101984 101906 -814.629 37563 -8261.3 -4119.87 
1.2e-08 2.71904 0.0278168 101961 101980 101880 -812.265 27165.5 -13745.7 -8399.71 
2e-08 3.12951 0.00704799 101928 102037 101894 -803.83 44957.7 -2230.15 3289.52 
2.8e-08 3.38138 -0.0116779 101926 101988 101868 -813.534 18656.6 -17740.3 12505.2 
3.6e-08 3.74511 0.00901348 102013 102007 101983 -807.287 32475 -5866.23 7214.1 
4.4e-08 4.14834 -0.0087519 101929 102003 101941 -805.692 23977.9 -9066.14 3985.57 
5.2e-08 4.44271 0.0384222 101940 102001 101957 -812.187 28095.8 -7619.92 -3279.79 
6e-08 4.83902 -0.0565294 101957 101980 102036 -809.324 17654.1 -15007 -1119.65 
6.8e-08 5.13681 0.00609447 101904 101993 102017 -816.431 16290.5 -3754.11 -6619.54 
7.6e-08 5.40075 0.0424694 101941 101988 102012 -815.112 20599.8 -4571.94 1307.8 
8.4e-08 5.81045 -0.0306997 101922 101998 102022 -813.075 27985.3 -15028.3 3641.97 
9.2e-08 5.90284 -0.00454719 101920 102012 101913 -807.626 26721.2 -2624.44 -14466.8 
1e-07 6.14106 -0.00264291 101966 101996 101999 -816.528 36364.3 -11415.4 -14799 
1.08e-07 6.36759 0.00923669 101966 101990 101983 -807.342 39482.5 -8700.21 -2276.56 
1.16e-07 6.64945 0.0219913 101945 101997 102072 -803.052 32969.7 -4385.27 7547.05 
1.24e-07 7.08741 -0.0164187 101956 101983 102105 -826.005 10333.3 -11183 -6893.48 
1.32e-07 7.3037 -0.00715548 102014 102036 102116 -802.553 24863.6 -5995.27 -2849.76 
1.4e-07 7.64953 0.0147447 101863 101980 101991 -817.626 37613.7 -7322.53 -17575.5 
1.48e-07 7.87193 -0.0207654 101893 102030 101995 -814.325 24979 -10421.9 -10547.3 
1.56e-07 8.14973 0.0160157 101941 101987 101961 -805.02 27761.9 -3938.35 -20965 
1.64e-07 8.40849 -0.0294572 101947 101996 102038 -810.573 12661.5 -8028.12 -5139.83 
1.72e-07 8.60725 0.0271665 101954 101995 102044 -819.78 30011.6 -7103.89 -6951.9 
1.8e-07 8.85381 0.00730226 101973 102000 102010 -804.944 16776.2 -563.849 -8196.12 
1.88e-07 9.211 -0.00755104 101983 101996 101971 -812.886 11112.8 -8555.7 13208 
1.96e-07 9.63934 -0.0031544 102012 101997 102000 -801.494 -3900.51 -6026.42 7661 
2.04e-07 9.98643 -0.00252867 101948 102003 101938 -815.367 -4362.48 -2203.85 17022 
2.12e-07 10.301 0.0158144 101962 101999 101939 -806.38 4563.42 -6810.82 15021.7 
2.2e-07 10.6208 -0.0079251 101943 102007 101855 -819.63 797.84 -4066.22 17592.6 
2.28e-07 10.929 -0.00515498 101952 101981 102013 -808.437 -3027.54 4036.51 5099.83 
2.36e-07 11.2829 0.0163452 101893 102006 101929 -808.71 -4958.39 -11808 4050.18 
2.44e-07 11.4337 -0.0157978 102031 102005 101941 -813.552 3333.47 -2536.55 -4820.69 
2.52e-07 11.7981 -0.00180022 102067 102000 102033 -809.211 9028.13 -4330.55 -9829.37 
2.6e-07 12.1297 0.0117203 102004 101988 101946 -810.744 11233.8 -48.5349 -29342.1 
2.68e-07 12.3882 -0.0227663 101957 102007 102002 -817.254 10336.9 1522.74 -21947.6 
2.76e-07 12.746 0.00943328 101879 102012 101961 -805.849 12396.6 -10135.8 -12946.9 
2.84e-07 12.8399 -0.00415154 101974 101990 101989 -812.529 14228.4 8740.88 -24107.4 
2.92e-07 13.1272 0.00735843 101936 101996 101931 -809.817 15954.9 -10823.1 -7749.23 
3e-07 13.5078 -0.00714481 101961 101977 101948 -817.443 10532.7 -2003.94 -13165.5 
3.08e-07 13.8066 0.00546855 101967 102033 101956 -801.067 686.02 734.825 -20371.5 
3.16e-07 14.094 0.0147212 101956 101977 101919 -808.981 3874.59 -1683.18 -23341.5 
3.24e-07 14.4071 -0.0079096 101901 102024 101961 -817.842 -13366.2 -3183.72 -14006.5 
3.32e-07 14.8318 -0.0180942 101943 101992 101969 -818.445 -26320.4 3144.81 -22515 
3.4e-07 15.2685 0.0217385 101871 102018 101872 -813.04 -30422.6 -4421.75 -16664.9 
3.48e-07 15.3634 0.0111511 101962 102000 101967 -819.253 -14781.7 -2155.64 -21104.7 
3.56e-07 15.7497 -0.0185609 101922 102005 101902 -803.165 -15451.4 453.74 -26874.7 
3.64e-07 16.1479 0.00245632 101869 101968 101991 -810.792 -20512.1 842.28 -30576.8 
3.72e-07 16.4922 -0.0162712 101972 102018 101922 -819.09 -8617.89 4397.42 -18907.4 
3.8e-07 16.7325 0.0225488 101967 101985 101892 -816.812 -10204.2 123.88 -12788.8 
3.88e-07 17.2611 0.0070137 101971 101999 101964 -802.86 -32000.4 4595.74 -12772.4 
3.96e-07 17.656 0.0158327 101981 102001 101944 -804.569 -24978.9 -3067.06 -32277.8 
