ITEM: TIMESTEP
1000000
ITEM: NUMBER OF CELLS
50
ITEM: BOX BOUNDS pp ss pp
0 0.0001
0 4e-07
0 0.0001
ITEM: CELLS yc f_vel[1] f_vel[2] f_mom[1] f_mom[2] f_mom[3] f_mom[4] f_q[1] f_q[2] f_q[3] 
4e-09 2.30187 0.254302 102770 103128 102741 -828.476 36169.7 -18248.5 -26583.9 
1.2e-08 2.7763 -0.00356977 102949 103151 102926 -824.654 10834.2 -12854.9 -12607.4 
2e-08 3.17046 0.0175114 102929 103085 102914 -826.939 2704.7 -4033.15 -5377.21 
2.8e-08 3.68823 -0.0203617 102949 103118 102958 -810.067 -881.788 -7700.4 5896.61 
3.6e-08 3.81053 -0.0299846 103048 103092 103080 -810.037 18141 1182.31 5784.48 
4.4e-08 4.11687 -0.0269332 103094 103112 103142 -821.5 -1671.61 -8374.06 -3386.28 
5.2e-08 4.38161 0.0232934 103120 103118 103139 -835.19 16748.7 -4116.1 -734.316 
6e-08 4.65053 -0.0314897 103104 103085 103105 -812.751 10577.3 -11997.5 266.853 
6.8e-08 4.93293 0.0144757 103117 103147 103107 -818.63 4883.19 -8074.37 6680.89 
7.6e-08 5.18608 -0.0104227 103153 103064 103046 -836.087 11377.6 -11673.7 2775 
8.4e-08 5.58536 0.0407677 103096 103094 103165 -820.019 -10184.5 -15078.2 14643.6 
9.2e-08 6.00075 0.0147097 103108 103100 103072 -832.45 -24039.5 -4247 1131.73 
1e-07 6.17872 -0.00692116 103133 103099 103077 -836.919 2104.69 -5047.2 6361.6 
1.08e-07 6.68424 -0.0371367 103168 103108 103086 -829.104 -13775.7 -9405.71 -13938.3 
1.16e-07 6.86382 0.000403602 103177 103086 103149 -823.569 -22115.8 1137.35 26313.3 
1.24e-07 7.33807 -0.00201246 103137 103104 103201 -831.582 -27487.2 256.661 -17797.4 
1.32e-07 7.38547 -0.0263291 103268 103120 103212 -819.371 -15021.3 -9026.01 -12151.9 
1.4e-07 7.8006 0.0496689 103201 103106 103260 -830.709 -20281 -10204.4 4844.57 
1.48e-07 7.92198 -0.0364484 103210 103088 103227 -849.286 -14671 -3276.73 3671.27 
1.56e-07 8.10103 0.0138876 103121 103089 103210 -805.202 32389.2 -5088.13 24130.5 
1.64e-07 8.63489 -0.0129953 103182 103110 103192 -826.498 -12896.6 -1687.09 19393.5 
1.72e-07 8.72834 0.019418 103147 103129 103128 -842.605 1647.33 -9833.89 6866.81 
1.8e-07 9.10725 0.0432766 103133 103071 103163 -828.936 8734.01 -6723.94 8768.35 
1.88e-07 9.79025 0.0242346 103132 103118 103114 -820.769 -32399.5 -9145.46 -22150.6 
1.96e-07 9.86122 -0.0454786 103190 103105 103131 -832.864 -17897.4 -582.469 -2372.75 
2.04e-07 10.1759 -0.0104121 103112 103116 103168 -815.655 -20933.6 -1269 -18663 
2.12e-07 10.3843 0.0176872 103043 103100 103106 -830.912 -3209.45 -5448.71 -5320.89 
2.2e-07 10.5626 0.0006348 103151 103084 103136 -848.732 -17700.4 139.45 -8434.69 
2.28e-07 10.7212 -0.0715044 103180 103120 103122 -819.439 12350.7 -3144.99 15488.7 
2.36e-07 11.2383 0.0370863 103136 103106 103109 -803.203 9715.97 -6671.51 -5119.44 
2.44e-07 11.5685 -0.0118529 103116 103089 103153 -836.525 5598.01 4003.86 1014.17 
2.52e-07 11.9135 0.0101868 103290 103089 103161 -832.794 -15025 -3144.79 4392.63 
2.6e-07 12.1517 -0.0424408 103122 103100 103174 -817.768 -589.515 -1895.66 -9243.06 
2.68e-07 12.5045 0.0226773 103116 103136 103189 -835.806 -23454.7 2826.02 5639.62 
2.76e-07 12.5761 -0.00637405 103160 103077 103206 -823.769 -16043.6 -12767 23099.5 
2.84e-07 12.8482 0.0293933 103174 103097 103116 -804.529 2218.54 -1423.25 10235.7 
2.92e-07 13.1228 0.0512709 103211 103104 103229 -833.586 4346.27 3359.05 29404.5 
3e-07 13.5678 -0.0744492 103216 103103 103125 -813.839 -7741.26 64.6451 16991.5 
3.08e-07 13.7759 0.000528033 103256 103105 103146 -817.967 -13963 -1897.1 10492.9 
3.16e-07 14.0569 0.017916 103194 103109 103216 -836.752 -8642.3 659.217 43825.5 
3.24e-07 14.4396 0.0109794 103111 103074 103141 -812.852 -11403.3 3492.32 29263.9 
3.32e-07 14.793 -0.0446121 103233 103138 103144 -831.223 1861.21 -989.525 15547.7 
3.4e-07 15.1466 -0.0459826 103200 103073 103143 -836.084 -2747.04 9616.68 11616.4 
3.48e-07 15.5083 0.0196986 103215 103112 103142 -818.394 -19873.3 -4334.31 38719 
3.56e-07 15.858 0.00871757 103113 103113 103055 -824.867 -21258.3 2466.53 33418 
3.64e-07 16.16 0.0165826 103025 103085 103058 -833.143 -15532.6 2492.58 49030.1 
3.72e-07 16.502 -0.0122507 102957 103095 102996 -831.405 -21916.6 2278.04 17076.7 
3.8e-07 16.8239 0.00640164 102947 103110 102920 -822.707 -51520.7 -977.382 14383.8 
3.88e-07 17.3027 -0.00442488 102927 103131 102958 -827.336 -52566.2 3755.99 10128.6 
3.96e-07 17.6859 -0.267633 102725 103139 102694 -833.421 -64335.3 19466.8 5127.19 
