ITEM: TIMESTEP
100000
ITEM: NUMBER OF CELLS
200
ITEM: BOX BOUNDS pp ss pp
0 0.0001
0 4e-05
0 0.0001
ITEM: CELLS id yc f_rho[1] f_rho[2] f_state[1] f_state[2] 
1 1e-07 144.279 3.73565e+24 208.252 10740.9 
2 3e-07 144.012 3.70714e+24 209.353 10715.2 
3 5e-07 143.734 3.6732e+24 211.528 10727.4 
4 7e-07 143.619 3.63012e+24 213.371 10694 
5 9e-07 143.302 3.60508e+24 214.897 10696.2 
6 1.1e-06 143.335 3.58836e+24 216.18 10710.1 
7 1.3e-06 143.078 3.55547e+24 217.73 10688 
8 1.5e-06 142.894 3.53118e+24 219.091 10681.4 
9 1.7e-06 142.741 3.51058e+24 221.303 10726.3 
10 1.9e-06 142.598 3.48426e+24 222.367 10697 
11 2.1e-06 142.438 3.4613e+24 223.955 10702.4 
12 2.3e-06 142.487 3.43331e+24 226.027 10714.1 
13 2.5e-06 142.031 3.4091e+24 226.409 10656.5 
14 2.7e-06 142.074 3.3961e+24 227.575 10670.6 
15 2.9e-06 142.078 3.39313e+24 228.307 10695.6 
16 3.1e-06 142.052 3.38167e+24 229.625 10721 
17 3.3e-06 141.785 3.34942e+24 231.203 10691.7 
18 3.5e-06 141.764 3.32699e+24 232.559 10682.4 
19 3.7e-06 141.64 3.31417e+24 233.034 10663 
20 3.9e-06 141.506 3.297e+24 234.929 10694 
21 4.1e-06 141.428 3.28889e+24 235.747 10704.8 
22 4.3e-06 141.39 3.2855e+24 236.283 10718.1 
23 4.5e-06 141.237 3.26064e+24 238.323 10728.8 
24 4.7e-06 141.052 3.2318e+24 239.706 10695.6 
25 4.9e-06 141.088 3.22779e+24 240.654 10724.6 
26 5.1e-06 141.257 3.23011e+24 240.632 10731.3 
27 5.3e-06 140.779 3.1925e+24 242.729 10698.8 
28 5.5e-06 140.769 3.18289e+24 242.844 10671.7 
29 5.7e-06 140.555 3.15732e+24 244.854 10673.6 
30 5.9e-06 140.571 3.14672e+24 245.321 10658 
31 6.1e-06 140.477 3.14358e+24 246.758 10709.7 
32 6.3e-06 140.473 3.1319e+24 247.188 10688.5 
33 6.5e-06 140.348 3.11146e+24 248.445 10672.8 
34 6.7e-06 140.106 3.08458e+24 249.924 10643.6 
35 6.9e-06 140.163 3.08613e+24 250.31 10665.4 
36 7.1e-06 140.089 3.07792e+24 251.425 10684.4 
37 7.3e-06 139.946 3.06248e+24 252.774 10687.8 
38 7.5e-06 139.96 3.05513e+24 254.288 10726.1 
39 7.7e-06 140.039 3.05298e+24 255.076 10751.7 
40 7.9e-06 139.599 3.0175e+24 256.47 10684.8 
41 8.1e-06 139.76 3.01381e+24 257.21 10702.5 
42 8.3e-06 139.569 2.99381e+24 258.51 10685.2 
43 8.5e-06 139.563 2.98608e+24 259.336 10691.7 
44 8.7e-06 139.541 2.97727e+24 260.831 10721.6 
45 8.9e-06 139.358 2.958e+24 261.917 10696.6 
46 9.1e-06 139.271 2.94449e+24 262.898 10687.6 
47 9.3e-06 139.198 2.93369e+24 263.949 10691 
48 9.5e-06 139.061 2.92156e+24 264.647 10674.9 
49 9.7e-06 139.064 2.91424e+24 265.488 10682 
50 9.9e-06 139.018 2.9039e+24 266.313 10677.2 
51 1.01e-05 138.845 2.88386e+24 267.486 10650.2 
52 1.03e-05 138.764 2.86663e+24 269.105 10650.7 
53 1.05e-05 138.802 2.86508e+24 270.842 10713.6 
54 1.07e-05 138.724 2.84716e+24 271.931 10689.4 
55 1.09e-05 138.681 2.84298e+24 273.041 10717.3 
56 1.11e-05 138.554 2.82579e+24 274.213 10698.2 
57 1.13e-05 138.401 2.80884e+24 276.317 10715.6 
58 1.15e-05 138.495 2.80757e+24 276.695 10725.4 
59 1.17e-05 138.399 2.79844e+24 277.12 10707 
60 1.19e-05 138.224 2.77956e+24 278.759 10697.6 
61 1.21e-05 138.145 2.76462e+24 279.375 10663.6 
62 1.23e-05 138.159 2.76e+24 281.334 10720.5 
63 1.25e-05 138.116 2.75422e+24 281.286 10696.2 
64 1.27e-05 138.136 2.75346e+24 281.752 10711 
65 1.29e-05 138.028 2.74175e+24 283.101 10716.5 
66 1.31e-05 138.06 2.7359e+24 282.824 10683.2 
67 1.33e-05 137.914 2.71816e+24 284.62 10681.3 
68 1.35e-05 137.848 2.72129e+24 285.404 10723 
69 1.37e-05 137.828 2.70555e+24 286.717 10710.1 
70 1.39e-05 137.632 2.69219e+24 286.687 10656.1 
71 1.41e-05 137.621 2.68556e+24 288.925 10712.8 
72 1.43e-05 137.694 2.68267e+24 289.215 10712 
73 1.45e-05 137.592 2.66771e+24 290.886 10713.8 
74 1.47e-05 137.468 2.65664e+24 291.342 10686.1 
75 1.49e-05 137.387 2.64202e+24 292.324 10663.1 
76 1.51e-05 137.429 2.64524e+24 293.033 10702 
77 1.53e-05 137.347 2.63577e+24 293.718 10688.6 
78 1.55e-05 137.311 2.62527e+24 294.816 10685.9 
79 1.57e-05 137.316 2.62272e+24 295.856 10713.1 
80 1.59e-05 137.255 2.61796e+24 296.904 10731.6 
81 1.61e-05 137.259 2.61082e+24 296.83 10699.6 
82 1.63e-05 137.177 2.60117e+24 297.795 10694.7 
83 1.65e-05 137.123 2.5973e+24 298.394 10700.3 
84 1.67e-05 137.11 2.58075e+24 300.093 10692.6 
85 1.69e-05 136.88 2.57171e+24 300.652 10675 
86 1.71e-05 136.931 2.5668e+24 302.649 10725.4 
87 1.73e-05 136.962 2.56335e+24 303.075 10726.1 
88 1.75e-05 136.848 2.55336e+24 303.675 10705.5 
89 1.77e-05 136.799 2.53719e+24 305.145 10689.1 
90 1.79e-05 136.524 2.52085e+24 306.004 10650.2 
91 1.81e-05 136.705 2.52096e+24 307.55 10704.5 
92 1.83e-05 136.566 2.51052e+24 308.686 10699.5 
93 1.85e-05 136.555 2.50045e+24 308.815 10661.1 
94 1.87e-05 136.353 2.49315e+24 310.117 10674.7 
95 1.89e-05 136.416 2.4892e+24 310.448 10669.2 
96 1.91e-05 136.455 2.49446e+24 310.571 10696 
97 1.93e-05 136.314 2.47815e+24 312.786 10701.8 
98 1.95e-05 136.422 2.47249e+24 312.65 10672.8 
99 1.97e-05 136.285 2.47039e+24 313.961 10708.4 
100 1.99e-05 136.167 2.45592e+24 314.861 10676.2 
101 2.01e-05 136.192 2.44723e+24 316.185 10683.2 
102 2.03e-05 136.074 2.44125e+24 316.777 10677 
103 2.05e-05 136.218 2.44228e+24 317.104 10692.6 
104 2.07e-05 135.959 2.43453e+24 317.883 10684.8 
105 2.09e-05 136.014 2.42399e+24 319.13 10680.3 
106 2.11e-05 135.88 2.41673e+24 320.12 10681.3 
107 2.13e-05 135.828 2.40505e+24 320.557 10644.2 
108 2.15e-05 135.893 2.40736e+24 321.713 10692.9 
109 2.17e-05 135.818 2.3974e+24 323.035 10692.3 
110 2.19e-05 135.63 2.38368e+24 324.547 10680.9 
111 2.21e-05 135.682 2.38493e+24 324.122 10672.6 
112 2.23e-05 135.701 2.37599e+24 325.316 10671.7 
113 2.25e-05 135.606 2.3674e+24 326.822 10682.3 
114 2.27e-05 135.518 2.35305e+24 328.372 10667.9 
115 2.29e-05 135.537 2.34759e+24 329.753 10688 
116 2.31e-05 135.616 2.35062e+24 329.314 10687.5 
117 2.33e-05 135.363 2.33564e+24 330.712 10664.5 
118 2.35e-05 135.378 2.32909e+24 332.33 10686.6 
119 2.37e-05 135.345 2.3229e+24 332.476 10662.9 
120 2.39e-05 135.284 2.31509e+24 334.493 10691.5 
121 2.41e-05 135.226 2.30986e+24 334.725 10674.8 
122 2.43e-05 135.264 2.30128e+24 336.095 10678.6 
123 2.45e-05 135.233 2.29856e+24 336.479 10678.2 
124 2.47e-05 135.178 2.28694e+24 337.565 10658.5 
125 2.49e-05 135.021 2.28142e+24 337.971 10645.6 
126 2.51e-05 135.116 2.2877e+24 338.269 10684.3 
127 2.53e-05 135.151 2.28546e+24 338.944 10695.1 
128 2.55e-05 134.912 2.27385e+24 340.813 10699.5 
129 2.57e-05 135.099 2.26997e+24 341.116 10690.7 
130 2.59e-05 134.996 2.26977e+24 342.27 10725.9 
131 2.61e-05 134.858 2.26104e+24 343.158 10712.4 
132 2.63e-05 134.846 2.24934e+24 343.735 10674.8 
133 2.65e-05 134.806 2.24289e+24 345.671 10704.2 
134 2.67e-05 134.807 2.23594e+24 345.349 10661.1 
135 2.69e-05 134.816 2.23107e+24 347.519 10704.7 
136 2.71e-05 134.594 2.2139e+24 348.753 10660 
137 2.73e-05 134.655 2.21392e+24 349.171 10673 
138 2.75e-05 134.74 2.21728e+24 349.657 10704 
139 2.77e-05 134.61 2.2036e+24 350.915 10676.2 
140 2.79e-05 134.594 2.21046e+24 351.598 10730.3 
141 2.81e-05 134.606 2.20493e+24 351.702 10706.6 
142 2.83e-05 134.464 2.19131e+24 352.709 10671 
143 2.85e-05 134.429 2.18479e+24 353.154 10652.6 
144 2.87e-05 134.448 2.18511e+24 353.95 10678.2 
145 2.89e-05 134.349 2.17333e+24 355.031 10653.1 
146 2.91e-05 134.292 2.16684e+24 356.545 10666.5 
147 2.93e-05 134.464 2.17219e+24 357.227 10713.4 
148 2.95e-05 134.276 2.16088e+24 358.144 10684.9 
149 2.97e-05 134.338 2.1578e+24 358.924 10692.9 
150 2.99e-05 134.241 2.14803e+24 359.772 10669.7 
151 3.01e-05 134.111 2.14314e+24 360.326 10661.8 
152 3.03e-05 134.174 2.13935e+24 360.092 10636 
153 3.05e-05 134.175 2.13584e+24 361.578 10662.4 
154 3.07e-05 134.117 2.1286e+24 362.753 10660.8 
155 3.09e-05 134.154 2.12317e+24 364.31 10679.2 
156 3.11e-05 134.052 2.11952e+24 364.826 10675.9 
157 3.13e-05 133.949 2.11478e+24 366.269 10694.2 
158 3.15e-05 133.958 2.10813e+24 366.7 10673.1 
159 3.17e-05 133.848 2.10287e+24 368.021 10684.8 
160 3.19e-05 133.953 2.10118e+24 369.075 10706.8 
161 3.21e-05 133.8 2.09263e+24 369.399 10672.6 
162 3.23e-05 133.892 2.09008e+24 369.47 10661.6 
163 3.25e-05 133.627 2.08021e+24 370.421 10638.6 
164 3.27e-05 133.921 2.0857e+24 370.785 10677.2 
165 3.29e-05 133.846 2.08271e+24 370.481 10653.2 
166 3.31e-05 133.801 2.08272e+24 371.975 10696.2 
167 3.33e-05 133.821 2.0756e+24 372.458 10673.4 
168 3.35e-05 133.645 2.06988e+24 373.067 10661.4 
169 3.37e-05 133.598 2.06154e+24 373.482 10630.3 
170 3.39e-05 133.774 2.06956e+24 374.2 10692.1 
171 3.41e-05 133.545 2.054e+24 376.306 10671.5 
172 3.43e-05 133.566 2.05151e+24 376.407 10661.4 
173 3.45e-05 133.611 2.04597e+24 378.306 10686.2 
174 3.47e-05 133.504 2.04812e+24 378.926 10715 
175 3.49e-05 133.523 2.04207e+24 379.701 10705.2 
176 3.51e-05 133.495 2.03872e+24 380.019 10696.6 
177 3.53e-05 133.444 2.03573e+24 380.701 10700.1 
178 3.55e-05 133.343 2.0235e+24 381.572 10660.1 
179 3.57e-05 133.434 2.0218e+24 382.52 10677.6 
180 3.59e-05 133.285 2.0159e+24 382.774 10653.6 
181 3.61e-05 133.494 2.02441e+24 384.035 10733.8 
182 3.63e-05 133.339 2.01013e+24 384.368 10667.3 
183 3.65e-05 133.276 2.00289e+24 386.229 10680.3 
184 3.67e-05 133.333 2.00262e+24 385.688 10663.9 
185 3.69e-05 133.271 1.99899e+24 386.043 10654.4 
186 3.71e-05 133.213 1.99709e+24 387.486 10684.1 
187 3.73e-05 133.206 1.99631e+24 387.922 10691.9 
188 3.75e-05 133.109 1.98906e+24 388.752 10675.9 
189 3.77e-05 133.053 1.98499e+24 389.184 10665.9 
190 3.79e-05 133.2 1.98399e+24 390.011 10683.2 
191 3.81e-05 132.957 1.97634e+24 390.467 10654.4 
192 3.83e-05 133.189 1.97608e+24 392.158 10699.1 
193 3.85e-05 132.923 1.96823e+24 393.755 10700 
194 3.87e-05 133.163 1.9754e+24 393.207 10724.1 
195 3.89e-05 133.077 1.97705e+24 393.615 10744.1 
196 3.91e-05 132.946 1.96676e+24 393.776 10692.6 
197 3.93e-05 132.951 1.95985e+24 395.455 10700.5 
198 3.95e-05 132.963 1.96333e+24 394.039 10681.1 
199 3.97e-05 132.87 1.96419e+24 394.879 10708.5 
200 3.99e-05 133.061 1.96598e+24 395.022 10722.2 
