ITEM: TIMESTEP
11000
ITEM: NUMBER OF CELLS
200
ITEM: BOX BOUNDS pp ss pp
0 0.0001
0 4e-05
0 0.0001
ITEM: CELLS id yc f_rho[1] f_rho[2] f_state[1] f_state[2] 
1 1e-07 142.546 3.67489e+24 206.422 10473.3 
2 3e-07 142.598 3.53622e+24 213.598 10428.4 
3 5e-07 142.22 3.51325e+24 211.573 10262.5 
4 7e-07 142.13 3.48907e+24 212.603 10241.5 
5 9e-07 141.98 3.45466e+24 217.008 10350.6 
6 1.1e-06 142.074 3.48454e+24 216.292 10405.7 
7 1.3e-06 142.09 3.43133e+24 220.676 10454.5 
8 1.5e-06 142.246 3.45504e+24 218.95 10444.4 
9 1.7e-06 143.068 3.42486e+24 220.492 10426 
10 1.9e-06 142.586 3.43853e+24 221.382 10509.9 
11 2.1e-06 142.166 3.43594e+24 220.573 10463.6 
12 2.3e-06 141.856 3.42784e+24 221.918 10502.6 
13 2.5e-06 140.852 3.3505e+24 224.758 10397 
14 2.7e-06 141.6 3.34516e+24 227.19 10492.7 
15 2.9e-06 140.72 3.31734e+24 224.767 10294.5 
16 3.1e-06 141.876 3.39984e+24 224.957 10559.5 
17 3.3e-06 141.32 3.3372e+24 225.981 10412.1 
18 3.5e-06 141.422 3.31926e+24 230.127 10546.1 
19 3.7e-06 141.026 3.26767e+24 229.658 10361.1 
20 3.9e-06 141.034 3.26043e+24 226.721 10205.9 
21 4.1e-06 141.18 3.25892e+24 231.681 10424.3 
22 4.3e-06 140.558 3.2636e+24 229.235 10329.1 
23 4.5e-06 140.83 3.31278e+24 233.336 10672.3 
24 4.7e-06 140.226 3.21007e+24 232.378 10298.9 
25 4.9e-06 140.298 3.13816e+24 230.706 9995.79 
26 5.1e-06 140.13 3.15837e+24 234.686 10233.7 
27 5.3e-06 140.362 3.1392e+24 237.101 10276.2 
28 5.5e-06 140.982 3.20682e+24 234.249 10371.4 
29 5.7e-06 139.04 3.04903e+24 239.742 10092.3 
30 5.9e-06 140.314 3.13747e+24 233.949 10134.1 
31 6.1e-06 139.696 3.09437e+24 237.553 10148.8 
32 6.3e-06 139.812 3.11815e+24 237.735 10234.6 
33 6.5e-06 141.324 3.2037e+24 242.752 10737.4 
34 6.7e-06 140.376 3.05317e+24 244.664 10313.4 
35 6.9e-06 140.714 3.09289e+24 247.316 10560.9 
36 7.1e-06 139.936 3.07511e+24 242.822 10309.4 
37 7.3e-06 139.7 3.0478e+24 248.995 10477.6 
38 7.5e-06 140.014 3.03754e+24 247.456 10377.8 
39 7.7e-06 138.904 2.93593e+24 248.854 10087.3 
40 7.9e-06 139.19 2.92935e+24 257.614 10419 
41 8.1e-06 138.982 2.96082e+24 250.908 10256.8 
42 8.3e-06 139.4 3.01071e+24 251.564 10456.9 
43 8.5e-06 139.322 2.99076e+24 251.371 10379.6 
44 8.7e-06 139.74 3.04204e+24 248.408 10433.1 
45 8.9e-06 139.388 2.93844e+24 255.013 10345.8 
46 9.1e-06 139.844 3.00027e+24 255.181 10570.4 
47 9.3e-06 139.88 2.9966e+24 260.327 10770.4 
48 9.5e-06 139.29 2.9933e+24 254.8 10530.1 
49 9.7e-06 139.41 2.98634e+24 252.869 10426 
50 9.9e-06 139.016 2.90823e+24 256.01 10279.4 
51 1.01e-05 138.658 2.89328e+24 260.831 10419.1 
52 1.03e-05 139.076 2.90682e+24 254.097 10197.6 
53 1.05e-05 138.76 2.86604e+24 261.328 10340.7 
54 1.07e-05 138.51 2.87421e+24 265.296 10527.7 
55 1.09e-05 139.04 2.88894e+24 260.752 10400.4 
56 1.11e-05 138.162 2.81749e+24 269.869 10497.8 
57 1.13e-05 138.366 2.81953e+24 265.848 10348.9 
58 1.15e-05 138.342 2.85348e+24 268.936 10595.2 
59 1.17e-05 139.002 2.87768e+24 264.397 10504.6 
60 1.19e-05 138.608 2.81654e+24 267.391 10397.9 
61 1.21e-05 138.46 2.83679e+24 268.871 10530.6 
62 1.23e-05 137.596 2.79538e+24 268.521 10363.4 
63 1.25e-05 139.062 2.84554e+24 265.065 10413.6 
64 1.27e-05 137.798 2.77807e+24 269.073 10320.4 
65 1.29e-05 138.402 2.77107e+24 269.694 10318.1 
66 1.31e-05 137.852 2.79263e+24 262.385 10116.6 
67 1.33e-05 139.488 2.8187e+24 266.818 10383.6 
68 1.35e-05 137.678 2.73983e+24 270.039 10214.8 
69 1.37e-05 137.064 2.66674e+24 274.765 10116.4 
70 1.39e-05 138.508 2.79038e+24 272.081 10482 
71 1.41e-05 138.638 2.84865e+24 271.308 10670.5 
72 1.43e-05 138.864 2.79438e+24 269.641 10402.9 
73 1.45e-05 137.862 2.72367e+24 278.56 10475 
74 1.47e-05 137.69 2.72094e+24 277.642 10430.1 
75 1.49e-05 137.544 2.71638e+24 281.463 10555.9 
76 1.51e-05 136.5 2.59063e+24 283.845 10152.5 
77 1.53e-05 137 2.56727e+24 290.852 10309.3 
78 1.55e-05 137.234 2.69245e+24 279.072 10374 
79 1.57e-05 136.424 2.65719e+24 280.366 10285.6 
80 1.59e-05 137.416 2.6685e+24 281.173 10359.1 
81 1.61e-05 137.298 2.64223e+24 284.592 10381.9 
82 1.63e-05 137.278 2.57985e+24 284.465 10132.3 
83 1.65e-05 136.482 2.53847e+24 289.075 10131.3 
84 1.67e-05 137.198 2.60987e+24 291.387 10499.6 
85 1.69e-05 137.31 2.6202e+24 288.75 10445.8 
86 1.71e-05 136.372 2.54319e+24 296.826 10422.3 
87 1.73e-05 137.102 2.57884e+24 290.966 10359.8 
88 1.75e-05 137.37 2.59357e+24 290.417 10399.3 
89 1.77e-05 136.926 2.58506e+24 291.98 10420.9 
90 1.79e-05 135.844 2.47282e+24 293.718 10027.8 
91 1.81e-05 136.384 2.56109e+24 292.161 10330.7 
92 1.83e-05 137.032 2.54086e+24 298.022 10454.7 
93 1.85e-05 136.658 2.49391e+24 296.858 10221.4 
94 1.87e-05 136.348 2.47544e+24 300.013 10253.6 
95 1.89e-05 136.146 2.51472e+24 304.753 10580.8 
96 1.91e-05 136.178 2.48589e+24 303.888 10429.9 
97 1.93e-05 136.056 2.48972e+24 305.197 10491 
98 1.95e-05 137.842 2.51423e+24 302.671 10506.5 
99 1.97e-05 136.956 2.52378e+24 303.928 10590.2 
100 1.99e-05 136.716 2.50323e+24 303.167 10477.7 
101 2.01e-05 136.152 2.49473e+24 301.395 10381.1 
102 2.03e-05 136.104 2.42435e+24 306.103 10245.8 
103 2.05e-05 136.652 2.52015e+24 302.235 10516.1 
104 2.07e-05 136.54 2.51381e+24 304.096 10554.2 
105 2.09e-05 136.068 2.46284e+24 308.254 10481.6 
106 2.11e-05 135.594 2.42806e+24 309.862 10387.5 
107 2.13e-05 137.318 2.53762e+24 302.741 10606.7 
108 2.15e-05 136.284 2.43674e+24 308.117 10365.9 
109 2.17e-05 135.608 2.39939e+24 306.674 10159.2 
110 2.19e-05 136.15 2.43842e+24 312.057 10505.7 
111 2.21e-05 135.754 2.38232e+24 313.866 10323.5 
112 2.23e-05 135.054 2.34194e+24 319.328 10325.1 
113 2.25e-05 135.682 2.34491e+24 318.627 10315.5 
114 2.27e-05 136.362 2.35138e+24 320.093 10391.6 
115 2.29e-05 135.392 2.35544e+24 321.853 10466.8 
116 2.31e-05 134.894 2.30457e+24 323.304 10286.9 
117 2.33e-05 135.288 2.33883e+24 322.624 10417.9 
118 2.35e-05 135.322 2.36074e+24 321.032 10463.6 
119 2.37e-05 135.532 2.33581e+24 323.837 10443.5 
120 2.39e-05 134.848 2.28415e+24 324.187 10223.6 
121 2.41e-05 135.544 2.32779e+24 323.617 10400.6 
122 2.43e-05 135.842 2.34888e+24 321.004 10410.1 
123 2.45e-05 134.744 2.25258e+24 332.879 10352.6 
124 2.47e-05 135.368 2.30936e+24 328.179 10463.7 
125 2.49e-05 134.608 2.29298e+24 330.026 10448 
126 2.51e-05 134.928 2.30298e+24 327.329 10407.8 
127 2.53e-05 134.372 2.27104e+24 324.723 10181.7 
128 2.55e-05 135.452 2.27366e+24 330.321 10369.2 
129 2.57e-05 134.888 2.26621e+24 331.881 10384 
130 2.59e-05 134.99 2.33139e+24 331.368 10666.1 
131 2.61e-05 134.642 2.24938e+24 341.39 10602.3 
132 2.63e-05 135.496 2.26479e+24 349.069 10915 
133 2.65e-05 134.632 2.28746e+24 340.106 10741.2 
134 2.67e-05 134.94 2.28275e+24 336.298 10599 
135 2.69e-05 135.52 2.23438e+24 336.439 10378.8 
136 2.71e-05 134.32 2.16512e+24 344.698 10304 
137 2.73e-05 135.512 2.23844e+24 341.737 10561.4 
138 2.75e-05 134.044 2.22698e+24 343.301 10555.4 
139 2.77e-05 134.836 2.24991e+24 341.757 10616.1 
140 2.79e-05 134.392 2.20249e+24 344.329 10470.6 
141 2.81e-05 134.838 2.24897e+24 339.64 10546 
142 2.83e-05 134.398 2.19385e+24 350.523 10617.1 
143 2.85e-05 134.654 2.21556e+24 342.641 10481.1 
144 2.87e-05 134.19 2.18574e+24 346.25 10448.9 
145 2.89e-05 134.694 2.17423e+24 345.543 10372.7 
146 2.91e-05 134.204 2.16391e+24 350.922 10484.2 
147 2.93e-05 133.614 2.14925e+24 351.436 10428.4 
148 2.95e-05 134.15 2.16046e+24 347.844 10375.6 
149 2.97e-05 133.926 2.17847e+24 351.7 10578.1 
150 2.99e-05 135.196 2.20635e+24 347.343 10580.8 
151 3.01e-05 133.472 2.09117e+24 352.752 10184.6 
152 3.03e-05 134.44 2.14301e+24 353.672 10464.2 
153 3.05e-05 135.058 2.12353e+24 352.243 10327.2 
154 3.07e-05 134.234 2.1487e+24 353.884 10498.3 
155 3.09e-05 133.962 2.153e+24 356.985 10611.5 
156 3.11e-05 132.814 2.07291e+24 364.732 10438.5 
157 3.13e-05 133.366 2.06824e+24 362.233 10343.6 
158 3.15e-05 132.72 2.0894e+24 362.906 10468.9 
159 3.17e-05 134.564 2.11312e+24 365.247 10656 
160 3.19e-05 134.18 2.12954e+24 362.022 10643.9 
161 3.21e-05 133.144 2.07178e+24 362.155 10359.1 
162 3.23e-05 133.636 2.09157e+24 368.736 10648.1 
163 3.25e-05 134.226 2.11577e+24 365.292 10670.7 
164 3.27e-05 133.398 2.08085e+24 361.317 10380.3 
165 3.29e-05 133.68 2.08154e+24 366.022 10519 
166 3.31e-05 133.772 2.08965e+24 368.897 10643 
167 3.33e-05 133.216 2.05164e+24 367.385 10406.5 
168 3.35e-05 133.546 2.01893e+24 369.351 10295.4 
169 3.37e-05 133.94 2.06146e+24 367.978 10473.2 
170 3.39e-05 133.104 2.01195e+24 371.278 10313.4 
171 3.41e-05 133.488 2.06834e+24 368.326 10518.1 
172 3.43e-05 133.624 2.04408e+24 369.716 10433.9 
173 3.45e-05 133.53 2.03684e+24 374.708 10537.4 
174 3.47e-05 134.102 2.08282e+24 365.004 10496.2 
175 3.49e-05 132.758 2.00316e+24 373.902 10340.9 
176 3.51e-05 133.298 2.01084e+24 374.742 10403.9 
177 3.53e-05 132.888 1.99566e+24 382.954 10551.6 
178 3.55e-05 133.76 2.02244e+24 382.246 10673.4 
179 3.57e-05 133.208 1.98915e+24 388.651 10673.6 
180 3.59e-05 132.518 1.9756e+24 379.128 10341.1 
181 3.61e-05 132.832 2.00273e+24 382.866 10586.5 
182 3.63e-05 133.838 2.03686e+24 383.868 10795.1 
183 3.65e-05 132.444 2.00629e+24 386.174 10697 
184 3.67e-05 133.612 2.06695e+24 377.395 10769.8 
185 3.69e-05 132.758 1.97561e+24 386.533 10543.2 
186 3.71e-05 133.464 1.98758e+24 378.264 10380.1 
187 3.73e-05 131.902 1.91252e+24 387.073 10220.7 
188 3.75e-05 133.506 1.99874e+24 381.263 10521.2 
189 3.77e-05 131.946 1.92286e+24 383.318 10176.3 
190 3.79e-05 132.452 1.96491e+24 378.424 10266.1 
191 3.81e-05 132.406 1.97021e+24 382.801 10412.9 
192 3.83e-05 132.87 1.97583e+24 382.417 10432 
193 3.85e-05 133.356 1.98775e+24 377.71 10365.8 
194 3.87e-05 132.708 1.95235e+24 388.591 10474.5 
195 3.89e-05 133.674 1.9671e+24 392.093 10648.8 
196 3.91e-05 132.16 1.92192e+24 384.366 10199.1 
197 3.93e-05 133.088 1.96979e+24 385.415 10481.7 
198 3.95e-05 133.016 1.96651e+24 391.883 10639.9 
199 3.97e-05 131.912 1.90185e+24 396.034 10399 
200 3.99e-05 132.664 1.95461e+24 394.144 10636.5 
