ITEM: TIMESTEP
100000
ITEM: NUMBER OF CELLS
200
ITEM: BOX BOUNDS pp ss pp
0 0.0001
0 4e-05
0 0.0001
ITEM: CELLS id yc f_rho[1] f_rho[2] f_state[1] f_state[2] 
1 1e-07 151.134 3.72013e+24 204.89 10523.5 
2 3e-07 149.333 3.6758e+24 206.914 10500.8 
3 5e-07 148.314 3.6507e+24 208.106 10489.3 
4 7e-07 147.242 3.62432e+24 209.817 10499.1 
5 9e-07 146.305 3.60127e+24 211.257 10503.9 
6 1.1e-06 145.086 3.57126e+24 212.534 10479.3 
7 1.3e-06 144.272 3.55123e+24 213.614 10473.5 
8 1.5e-06 143.916 3.54245e+24 215.017 10516.2 
9 1.7e-06 142.257 3.50163e+24 216.2 10452.3 
10 1.9e-06 142.875 3.51682e+24 216.923 10532.7 
11 2.1e-06 142.36 3.50417e+24 217.616 10528.3 
12 2.3e-06 140.625 3.46145e+24 220.131 10520.2 
13 2.5e-06 139.818 3.4416e+24 221.448 10522.4 
14 2.7e-06 139.602 3.43626e+24 222.002 10532.4 
15 2.9e-06 138.567 3.4108e+24 223.228 10512.1 
16 3.1e-06 138.051 3.3981e+24 224.24 10520.4 
17 3.3e-06 137.845 3.39303e+24 225.068 10543.5 
18 3.5e-06 137.186 3.3768e+24 225.487 10512.6 
19 3.7e-06 136.425 3.35807e+24 226.305 10492.2 
20 3.9e-06 135.684 3.33984e+24 227.244 10478.5 
21 4.1e-06 135.209 3.32815e+24 228.264 10488.7 
22 4.3e-06 134.378 3.30769e+24 229.874 10497.8 
23 4.5e-06 133.878 3.29537e+24 231.209 10519.4 
24 4.7e-06 132.937 3.27221e+24 232.517 10504.6 
25 4.9e-06 132.605 3.26403e+24 233.793 10535.8 
26 5.1e-06 131.62 3.23979e+24 234.914 10507.7 
27 5.3e-06 131.261 3.23097e+24 235.6 10509.7 
28 5.5e-06 130.424 3.21036e+24 236.406 10478.4 
29 5.7e-06 129.178 3.17969e+24 237.874 10442.7 
30 5.9e-06 128.808 3.17058e+24 239.519 10484.9 
31 6.1e-06 127.728 3.144e+24 241.673 10490.4 
32 6.3e-06 127.075 3.12791e+24 242.569 10475.4 
33 6.5e-06 126.947 3.12477e+24 243.059 10486.1 
34 6.7e-06 125.948 3.10019e+24 244.513 10465.8 
35 6.9e-06 125.221 3.08229e+24 246.386 10485.1 
36 7.1e-06 125.079 3.07878e+24 247.16 10506 
37 7.3e-06 124.264 3.05872e+24 248.069 10476 
38 7.5e-06 123.936 3.05065e+24 249.98 10528.8 
39 7.7e-06 123.601 3.04242e+24 250.727 10531.8 
40 7.9e-06 123.074 3.02944e+24 251.508 10519.5 
41 8.1e-06 122.513 3.01563e+24 252.255 10502.7 
42 8.3e-06 122.216 3.00833e+24 253.605 10533.4 
43 8.5e-06 121.422 2.98878e+24 254.257 10491.8 
44 8.7e-06 120.773 2.97279e+24 254.56 10448.1 
45 8.9e-06 120.215 2.95907e+24 256.472 10478 
46 9.1e-06 119.726 2.94703e+24 258.414 10514.4 
47 9.3e-06 119.005 2.92929e+24 259.713 10503.6 
48 9.5e-06 118.738 2.92271e+24 260.733 10521.2 
49 9.7e-06 118.05 2.90577e+24 262.268 10521.8 
50 9.9e-06 117.908 2.90228e+24 262.379 10513.6 
51 1.01e-05 117.061 2.88142e+24 263.491 10482.3 
52 1.03e-05 117.323 2.88789e+24 263.651 10512.2 
53 1.05e-05 116.595 2.86997e+24 264.238 10470.2 
54 1.07e-05 115.919 2.85332e+24 265.716 10467.7 
55 1.09e-05 115.901 2.85288e+24 265.882 10472.6 
56 1.11e-05 115.861 2.85189e+24 265.964 10472.2 
57 1.13e-05 115.361 2.83959e+24 267.566 10489.9 
58 1.15e-05 114.88 2.82775e+24 268.844 10496 
59 1.17e-05 114.012 2.80637e+24 270.111 10465.7 
60 1.19e-05 113.516 2.79416e+24 271.594 10477.4 
61 1.21e-05 113.647 2.79739e+24 271.796 10497.4 
62 1.23e-05 113.492 2.79358e+24 272.589 10513.6 
63 1.25e-05 112.996 2.78138e+24 273.133 10488.6 
64 1.27e-05 112.695 2.77396e+24 273.46 10473.2 
65 1.29e-05 112.385 2.76632e+24 275.002 10503.2 
66 1.31e-05 111.951 2.75564e+24 276.637 10524.9 
67 1.33e-05 111.331 2.74039e+24 278.054 10520.2 
68 1.35e-05 110.85 2.72854e+24 279.752 10538.7 
69 1.37e-05 110.102 2.71013e+24 281.103 10518.2 
70 1.39e-05 109.428 2.69354e+24 282.503 10505.8 
71 1.41e-05 108.459 2.6697e+24 284.3 10479 
72 1.43e-05 108.413 2.66857e+24 284.592 10485.4 
73 1.45e-05 107.899 2.65591e+24 285.715 10476.9 
74 1.47e-05 107.977 2.65784e+24 286.557 10515.3 
75 1.49e-05 107.722 2.65154e+24 287.737 10533.6 
76 1.51e-05 107.658 2.64997e+24 287.695 10525.8 
77 1.53e-05 107.089 2.63597e+24 288.817 10511.1 
78 1.55e-05 105.618 2.59976e+24 291.122 10449.4 
79 1.57e-05 105.806 2.60439e+24 291.402 10478.1 
80 1.59e-05 105.242 2.59051e+24 293.395 10493.5 
81 1.61e-05 104.839 2.58058e+24 293.643 10462.1 
82 1.63e-05 105.043 2.58562e+24 293.198 10466.7 
83 1.65e-05 104.704 2.57728e+24 293.982 10460.8 
84 1.67e-05 104.345 2.56843e+24 294.936 10458.7 
85 1.69e-05 103.819 2.55549e+24 296.08 10446.4 
86 1.71e-05 103.194 2.54008e+24 298.098 10454.2 
87 1.73e-05 103.578 2.54955e+24 298.663 10513 
88 1.75e-05 103.623 2.55065e+24 298.889 10525.5 
89 1.77e-05 103.016 2.53572e+24 300.853 10532.7 
90 1.79e-05 102.489 2.52274e+24 301.587 10504.3 
91 1.81e-05 101.984 2.51032e+24 302.118 10471 
92 1.83e-05 101.947 2.5094e+24 303.253 10506.5 
93 1.85e-05 101.32 2.49398e+24 304.95 10500.3 
94 1.87e-05 100.762 2.48023e+24 306.03 10479.4 
95 1.89e-05 100.212 2.46668e+24 306.344 10432.9 
96 1.91e-05 100.454 2.47265e+24 306.233 10454.4 
97 1.93e-05 100.475 2.47318e+24 307.703 10506.8 
98 1.95e-05 100.046 2.46261e+24 308.906 10502.8 
99 1.97e-05 99.8924 2.45883e+24 309.644 10511.7 
100 1.99e-05 99.7011 2.45412e+24 310.251 10512.2 
101 2.01e-05 99.2178 2.44222e+24 311.46 10502 
102 2.03e-05 98.2645 2.41876e+24 313.314 10463 
103 2.05e-05 98.4464 2.42323e+24 314.001 10505.3 
104 2.07e-05 97.62 2.40289e+24 314.617 10437.6 
105 2.09e-05 97.4104 2.39773e+24 316.339 10472.2 
106 2.11e-05 97.2745 2.39439e+24 317.676 10501.8 
107 2.13e-05 97.1021 2.39015e+24 317.622 10481.4 
108 2.15e-05 97.2601 2.39403e+24 316.181 10450.8 
109 2.17e-05 96.872 2.38448e+24 318.082 10471.7 
110 2.19e-05 96.452 2.37414e+24 319.916 10486.4 
111 2.21e-05 95.8861 2.36021e+24 322.321 10503.2 
112 2.23e-05 95.9257 2.36119e+24 323.007 10530 
113 2.25e-05 95.5878 2.35287e+24 323.808 10518.9 
114 2.27e-05 94.9779 2.33786e+24 324.244 10465.8 
115 2.29e-05 95.1878 2.34303e+24 324.319 10491.4 
116 2.31e-05 94.6753 2.33041e+24 326.396 10501.7 
117 2.33e-05 94.7974 2.33342e+24 324.723 10461.4 
118 2.35e-05 94.2349 2.31957e+24 326.202 10446.7 
119 2.37e-05 94.212 2.31901e+24 328.842 10528.6 
120 2.39e-05 94.1223 2.3168e+24 329.373 10535.6 
121 2.41e-05 93.614 2.30429e+24 329.431 10480.6 
122 2.43e-05 93.5235 2.30206e+24 330.15 10493.3 
123 2.45e-05 93.3784 2.29849e+24 330.817 10498.2 
124 2.47e-05 92.9817 2.28872e+24 330.899 10456.2 
125 2.49e-05 92.6991 2.28177e+24 331.554 10445 
126 2.51e-05 92.6374 2.28025e+24 333.664 10504.5 
127 2.53e-05 91.7578 2.2586e+24 334.908 10443.5 
128 2.55e-05 91.7828 2.25921e+24 335.99 10480.1 
129 2.57e-05 91.8602 2.26112e+24 337.28 10529.2 
130 2.59e-05 91.619 2.25518e+24 337.383 10504.8 
131 2.61e-05 91.2582 2.2463e+24 337.308 10461.1 
132 2.63e-05 91.2409 2.24587e+24 339.466 10526 
133 2.65e-05 90.9252 2.2381e+24 340.132 10510.2 
134 2.67e-05 90.5254 2.22826e+24 341.214 10497.3 
135 2.69e-05 90.4665 2.22681e+24 341.567 10501.3 
136 2.71e-05 89.9523 2.21415e+24 342.374 10466.3 
137 2.73e-05 89.731 2.20871e+24 343.978 10489.4 
138 2.75e-05 89.62 2.20598e+24 344.986 10507.1 
139 2.77e-05 89.5568 2.20442e+24 345.238 10507.4 
140 2.79e-05 88.7983 2.18575e+24 347.482 10486.1 
141 2.81e-05 88.7851 2.18542e+24 347.777 10493.5 
142 2.83e-05 88.9025 2.18831e+24 348.46 10528 
143 2.85e-05 88.173 2.17036e+24 349.816 10482.3 
144 2.87e-05 88.1803 2.17054e+24 349.188 10464.3 
145 2.89e-05 88.0086 2.16631e+24 348.722 10430 
146 2.91e-05 88.0017 2.16614e+24 348.892 10434.2 
147 2.93e-05 88.2332 2.17184e+24 350.06 10496.7 
148 2.95e-05 88.2258 2.17166e+24 351.119 10527.6 
149 2.97e-05 87.655 2.15761e+24 351.695 10476.6 
150 2.99e-05 87.0355 2.14236e+24 354.895 10497.2 
151 3.01e-05 87.3767 2.15076e+24 355.298 10550.4 
152 3.03e-05 86.7092 2.13433e+24 356.735 10512.1 
153 3.05e-05 86.7148 2.13446e+24 355.979 10490.5 
154 3.07e-05 86.2255 2.12242e+24 356.936 10459.4 
155 3.09e-05 86.1485 2.12053e+24 357.713 10472.8 
156 3.11e-05 86.0038 2.11696e+24 358.613 10481.5 
157 3.13e-05 85.8247 2.11255e+24 358.291 10450.3 
158 3.15e-05 85.7348 2.11034e+24 358.188 10436.3 
159 3.17e-05 85.7386 2.11044e+24 361.128 10522.5 
160 3.19e-05 85.8842 2.11402e+24 362.011 10566.1 
161 3.21e-05 85.7069 2.10966e+24 361.236 10521.7 
162 3.23e-05 84.7024 2.08493e+24 363.021 10449.8 
163 3.25e-05 84.754 2.0862e+24 363.742 10476.9 
164 3.27e-05 84.4225 2.07804e+24 364.746 10464.7 
165 3.29e-05 84.5733 2.08175e+24 365.384 10501.8 
166 3.31e-05 84.4504 2.07873e+24 365.58 10492.1 
167 3.33e-05 84.5897 2.08216e+24 366.47 10535 
168 3.35e-05 84.5208 2.08046e+24 366.902 10538.8 
169 3.37e-05 84.5075 2.08013e+24 368.859 10593.4 
170 3.39e-05 84.1113 2.07038e+24 368.052 10520.6 
171 3.41e-05 83.4992 2.05531e+24 370.374 10510 
172 3.43e-05 83.4647 2.05446e+24 370.385 10506 
173 3.45e-05 83.5745 2.05717e+24 370.561 10524.8 
174 3.47e-05 83.1637 2.04705e+24 371.801 10508.1 
175 3.49e-05 82.9065 2.04072e+24 373.602 10526.3 
176 3.51e-05 82.8963 2.04047e+24 372.937 10506.3 
177 3.53e-05 83.0185 2.04348e+24 372.975 10522.9 
178 3.55e-05 82.6776 2.03509e+24 375.672 10555.4 
179 3.57e-05 82.1408 2.02188e+24 377.332 10533.2 
180 3.59e-05 82.0374 2.01933e+24 377.145 10514.8 
181 3.61e-05 81.7526 2.01232e+24 378.421 10513.7 
182 3.63e-05 81.7479 2.01221e+24 378.339 10510.8 
183 3.65e-05 81.5559 2.00748e+24 379.219 10510.5 
184 3.67e-05 81.4813 2.00564e+24 379.995 10522.4 
185 3.69e-05 81.369 2.00288e+24 381.132 10539.3 
186 3.71e-05 81.2309 1.99948e+24 381.334 10527 
187 3.73e-05 80.9243 1.99193e+24 382.711 10525.2 
188 3.75e-05 80.5004 1.9815e+24 383.577 10493.7 
189 3.77e-05 80.4851 1.98112e+24 383.396 10486.8 
190 3.79e-05 80.7518 1.98769e+24 384.063 10539.8 
191 3.81e-05 80.291 1.97634e+24 385.944 10531 
192 3.83e-05 79.6857 1.96144e+24 385.579 10441.7 
193 3.85e-05 79.3556 1.95332e+24 387.664 10454.7 
194 3.87e-05 79.2191 1.94996e+24 387.453 10431 
195 3.89e-05 79.327 1.95262e+24 388.978 10486.4 
196 3.91e-05 78.9358 1.94299e+24 391.658 10506.5 
197 3.93e-05 78.9127 1.94242e+24 392.76 10533 
198 3.95e-05 78.9399 1.94309e+24 391.896 10513.5 
199 3.97e-05 78.6803 1.9367e+24 392.656 10499.2 
200 3.99e-05 78.8495 1.94086e+24 393.268 10538.2 
