ITEM: TIMESTEP
100000
ITEM: NUMBER OF CELLS
200
ITEM: BOX BOUNDS pp ss pp
0 0.0001
0 4e-05
0 0.0001
ITEM: CELLS id yc f_rho[1] f_rho[2] f_state[1] f_state[2] 
1 1e-07 145.041 3.73307e+24 208.708 10757 
2 3e-07 144.774 3.70215e+24 209.521 10709.4 
3 5e-07 144.497 3.66604e+24 211.468 10703.5 
4 7e-07 144.356 3.64532e+24 213.559 10748.2 
5 9e-07 144.374 3.62656e+24 214.28 10729 
6 1.1e-06 143.991 3.60602e+24 215.762 10742 
7 1.3e-06 143.927 3.56972e+24 217.43 10716.1 
8 1.5e-06 143.737 3.5474e+24 218.459 10699.5 
9 1.7e-06 143.419 3.51497e+24 220.362 10694 
10 1.9e-06 143.505 3.51106e+24 220.841 10705.3 
11 2.1e-06 143.211 3.47679e+24 222.375 10674.5 
12 2.3e-06 143.263 3.46631e+24 223.217 10682.6 
13 2.5e-06 143.27 3.45613e+24 224.709 10722.4 
14 2.7e-06 142.881 3.44972e+24 224.831 10708.4 
15 2.9e-06 142.946 3.42084e+24 227.367 10738.5 
16 3.1e-06 142.831 3.39323e+24 228.782 10718.1 
17 3.3e-06 142.344 3.36804e+24 229.629 10677.9 
18 3.5e-06 142.454 3.34737e+24 231.636 10705.2 
19 3.7e-06 142.533 3.34147e+24 232.689 10734.8 
20 3.9e-06 142.152 3.31672e+24 234.084 10719.2 
21 4.1e-06 141.847 3.2848e+24 235.973 10701.7 
22 4.3e-06 142.04 3.27686e+24 237.036 10724 
23 4.5e-06 141.688 3.25728e+24 238.535 10727.3 
24 4.7e-06 141.706 3.2558e+24 238.365 10714.8 
25 4.9e-06 141.892 3.24456e+24 239.589 10732.6 
26 5.1e-06 141.702 3.22967e+24 240.211 10711.1 
27 5.3e-06 141.664 3.20777e+24 241.678 10703.5 
28 5.5e-06 141.225 3.19137e+24 242.729 10695 
29 5.7e-06 141.137 3.17318e+24 244.685 10719.8 
30 5.9e-06 141.321 3.16878e+24 245.073 10721.9 
31 6.1e-06 140.989 3.14482e+24 246.312 10694.6 
32 6.3e-06 141.126 3.14102e+24 247.437 10730.5 
33 6.5e-06 141.006 3.1246e+24 248.343 10713.4 
34 6.7e-06 140.832 3.10433e+24 250.088 10718.8 
35 6.9e-06 140.822 3.09714e+24 250.138 10696.1 
36 7.1e-06 140.442 3.06909e+24 252.289 10690.3 
37 7.3e-06 140.603 3.06144e+24 253.827 10728.7 
38 7.5e-06 140.424 3.03633e+24 256.096 10735.8 
39 7.7e-06 140.46 3.03031e+24 256.484 10730.8 
40 7.9e-06 140.403 3.01679e+24 257.59 10729 
41 8.1e-06 140.254 2.99778e+24 258.745 10709.1 
42 8.3e-06 140.158 2.99422e+24 259.528 10728.8 
43 8.5e-06 140.09 2.98072e+24 260.055 10702.1 
44 8.7e-06 139.878 2.97066e+24 261.535 10726.7 
45 8.9e-06 139.867 2.95412e+24 262.623 10711.3 
46 9.1e-06 140.076 2.95255e+24 263.276 10732.3 
47 9.3e-06 139.754 2.92858e+24 266.004 10755.5 
48 9.5e-06 139.591 2.90806e+24 266.18 10687.2 
49 9.7e-06 139.348 2.89426e+24 268.121 10714 
50 9.9e-06 139.442 2.89272e+24 268.574 10726.4 
51 1.01e-05 139.51 2.88902e+24 268.722 10718.6 
52 1.03e-05 139.355 2.87549e+24 269.741 10708.8 
53 1.05e-05 139.262 2.86117e+24 270.97 10704.1 
54 1.07e-05 139.53 2.86403e+24 271.966 10754.1 
55 1.09e-05 139.205 2.84649e+24 273.243 10738.5 
56 1.11e-05 139.056 2.82826e+24 274.774 10729.5 
57 1.13e-05 139.148 2.82436e+24 275.399 10739 
58 1.15e-05 139.01 2.8074e+24 276.634 10722.4 
59 1.17e-05 138.875 2.78969e+24 278.39 10722.4 
60 1.19e-05 138.794 2.78829e+24 278.228 10710.8 
61 1.21e-05 138.771 2.7795e+24 279.193 10714.1 
62 1.23e-05 138.959 2.77947e+24 280.138 10750.2 
63 1.25e-05 138.701 2.76781e+24 280.424 10716.1 
64 1.27e-05 138.661 2.76102e+24 282.092 10753.3 
65 1.29e-05 138.653 2.74057e+24 283.421 10724 
66 1.31e-05 138.516 2.72478e+24 284.355 10697.3 
67 1.33e-05 138.243 2.72285e+24 285.109 10718.1 
68 1.35e-05 138.25 2.71423e+24 285.968 10716.4 
69 1.37e-05 138.438 2.71138e+24 287.035 10745.1 
70 1.39e-05 138.215 2.69957e+24 287.136 10702 
71 1.41e-05 138.302 2.69736e+24 288.531 10745.2 
72 1.43e-05 138.126 2.6835e+24 289.74 10734.8 
73 1.45e-05 138.148 2.67706e+24 290.041 10720.2 
74 1.47e-05 138.107 2.66289e+24 291.666 10723.2 
75 1.49e-05 137.98 2.64937e+24 292.302 10692 
76 1.51e-05 137.927 2.64958e+24 292.932 10715.8 
77 1.53e-05 138 2.64058e+24 294.607 10740.5 
78 1.55e-05 137.887 2.62693e+24 296.041 10737 
79 1.57e-05 137.822 2.62724e+24 295.519 10719.3 
80 1.59e-05 137.736 2.61058e+24 296.876 10700.3 
81 1.61e-05 137.871 2.61161e+24 297.652 10732.5 
82 1.63e-05 137.505 2.59287e+24 298.934 10701.4 
83 1.65e-05 137.504 2.58357e+24 300.83 10730.6 
84 1.67e-05 137.467 2.58031e+24 300.802 10716.1 
85 1.69e-05 137.443 2.57254e+24 301.668 10714.6 
86 1.71e-05 137.394 2.5625e+24 302.837 10714.1 
87 1.73e-05 137.305 2.55723e+24 302.865 10693.1 
88 1.75e-05 137.284 2.5425e+24 304.938 10704.2 
89 1.77e-05 137.33 2.5351e+24 305.194 10682 
90 1.79e-05 137.115 2.52237e+24 307.225 10699.1 
91 1.81e-05 137.084 2.51858e+24 307.92 10707.2 
92 1.83e-05 137.033 2.50433e+24 309.187 10690.4 
93 1.85e-05 136.955 2.49592e+24 309.619 10669.4 
94 1.87e-05 137.018 2.48904e+24 311.433 10702.3 
95 1.89e-05 136.99 2.49042e+24 310.276 10668.5 
96 1.91e-05 136.843 2.48565e+24 312.313 10718 
97 1.93e-05 137.053 2.47541e+24 313.472 10713.5 
98 1.95e-05 136.869 2.46999e+24 314.295 10718 
99 1.97e-05 136.849 2.47097e+24 314.92 10743.6 
100 1.99e-05 136.677 2.4525e+24 316.065 10702.1 
101 2.01e-05 136.667 2.44386e+24 317.772 10722 
102 2.03e-05 136.601 2.42863e+24 318.362 10675 
103 2.05e-05 136.537 2.42418e+24 319.821 10704.2 
104 2.07e-05 136.676 2.41724e+24 320.417 10693.5 
105 2.09e-05 136.685 2.40807e+24 321.99 10705.2 
106 2.11e-05 136.192 2.40067e+24 322.276 10681.8 
107 2.13e-05 136.445 2.39684e+24 323.342 10700 
108 2.15e-05 136.383 2.38918e+24 324.98 10719.9 
109 2.17e-05 136.192 2.37768e+24 325.631 10689.6 
110 2.19e-05 136.374 2.38046e+24 326.004 10714.4 
111 2.21e-05 136.252 2.37477e+24 326.963 10720.2 
112 2.23e-05 136.226 2.37046e+24 326.811 10695.8 
113 2.25e-05 136.14 2.36468e+24 328.313 10718.7 
114 2.27e-05 136.09 2.35311e+24 329.837 10715.8 
115 2.29e-05 136.019 2.34127e+24 330.744 10691.2 
116 2.31e-05 136.015 2.32953e+24 331.706 10668.5 
117 2.33e-05 135.931 2.31851e+24 333.236 10667 
118 2.35e-05 135.937 2.30983e+24 335.06 10685.3 
119 2.37e-05 135.976 2.31475e+24 335.339 10717 
120 2.39e-05 135.983 2.31658e+24 335.468 10729.5 
121 2.41e-05 135.799 2.30304e+24 336.521 10700.3 
122 2.43e-05 135.764 2.29573e+24 337.391 10693.9 
123 2.45e-05 135.798 2.29399e+24 338.143 10709.7 
124 2.47e-05 135.795 2.28649e+24 339.072 10704 
125 2.49e-05 135.602 2.28007e+24 340.646 10723.5 
126 2.51e-05 135.728 2.2792e+24 340.806 10724.4 
127 2.53e-05 135.668 2.26763e+24 342.1 10710.5 
128 2.55e-05 135.576 2.25993e+24 342.919 10699.7 
129 2.57e-05 135.604 2.26079e+24 343.472 10721 
130 2.59e-05 135.586 2.25413e+24 344.08 10708.4 
131 2.61e-05 135.319 2.24536e+24 344.774 10688.1 
132 2.63e-05 135.571 2.24653e+24 345.604 10719.5 
133 2.65e-05 135.393 2.22418e+24 347.751 10678.8 
134 2.67e-05 135.314 2.22215e+24 347.708 10667.7 
135 2.69e-05 135.23 2.21437e+24 348.689 10660.3 
136 2.71e-05 135.438 2.21835e+24 349.026 10689.9 
137 2.73e-05 134.978 2.20828e+24 349.774 10664.1 
138 2.75e-05 135.306 2.20608e+24 351.212 10697.3 
139 2.77e-05 135.263 2.20389e+24 352.509 10726.1 
140 2.79e-05 135.104 2.19756e+24 354.623 10759.5 
141 2.81e-05 135.203 2.19395e+24 354.048 10724.4 
142 2.83e-05 135.15 2.18258e+24 355.001 10697.5 
143 2.85e-05 135.093 2.17852e+24 355.143 10681.9 
144 2.87e-05 134.973 2.17237e+24 355.911 10674.8 
145 2.89e-05 134.936 2.17086e+24 357.654 10719.6 
146 2.91e-05 135.024 2.17271e+24 357.633 10728.1 
147 2.93e-05 134.933 2.16628e+24 358.791 10731 
148 2.95e-05 135.026 2.16206e+24 359.974 10745.4 
149 2.97e-05 134.636 2.14708e+24 362.055 10732.6 
150 2.99e-05 134.707 2.14537e+24 361.614 10711 
151 3.01e-05 134.718 2.1386e+24 362.762 10711.1 
152 3.03e-05 134.829 2.13762e+24 362.649 10702.8 
153 3.05e-05 134.706 2.13334e+24 363.488 10706.2 
154 3.07e-05 134.706 2.12711e+24 364.167 10694.8 
155 3.09e-05 134.639 2.12632e+24 364.926 10713.1 
156 3.11e-05 134.682 2.12463e+24 365.028 10707.6 
157 3.13e-05 134.586 2.11559e+24 366.181 10695.7 
158 3.15e-05 134.556 2.11123e+24 367.196 10703.3 
159 3.17e-05 134.615 2.10519e+24 368.033 10697 
160 3.19e-05 134.594 2.09578e+24 369.528 10692.4 
161 3.21e-05 134.541 2.09578e+24 370.342 10715.9 
162 3.23e-05 134.455 2.09402e+24 371.331 10735.6 
163 3.25e-05 134.356 2.08554e+24 372.463 10724.7 
164 3.27e-05 134.338 2.08241e+24 372.568 10711.6 
165 3.29e-05 134.441 2.08289e+24 372.848 10722.1 
166 3.31e-05 134.218 2.06977e+24 374.053 10689 
167 3.33e-05 134.347 2.06545e+24 375.294 10702.1 
168 3.35e-05 134.4 2.05921e+24 376.785 10712.2 
169 3.37e-05 134.393 2.05969e+24 376.992 10720.5 
170 3.39e-05 134.167 2.05038e+24 377.792 10694.7 
171 3.41e-05 134.291 2.05586e+24 377.81 10723.8 
172 3.43e-05 134.234 2.04851e+24 379.122 10722.6 
173 3.45e-05 134.114 2.04614e+24 378.856 10702.7 
174 3.47e-05 134.251 2.04104e+24 379.886 10705 
175 3.49e-05 134.146 2.04257e+24 380.223 10722.6 
176 3.51e-05 134.02 2.04029e+24 381.802 10755.1 
177 3.53e-05 134.018 2.03731e+24 382.408 10756.4 
178 3.55e-05 134.058 2.02839e+24 383.503 10740 
179 3.57e-05 134.181 2.01979e+24 384.642 10726.2 
180 3.59e-05 134.076 2.01231e+24 385.651 10714.5 
181 3.61e-05 133.891 2.01052e+24 385.529 10701.6 
182 3.63e-05 133.892 2.00264e+24 387.177 10705.2 
183 3.65e-05 134.034 2.00845e+24 385.867 10700 
184 3.67e-05 133.949 2.01219e+24 385.66 10714.2 
185 3.69e-05 133.915 2.00237e+24 387.304 10707.3 
186 3.71e-05 133.964 1.99981e+24 389.059 10742 
187 3.73e-05 133.894 1.99268e+24 388.21 10680.4 
188 3.75e-05 133.761 1.99189e+24 389.036 10698.9 
189 3.77e-05 133.674 1.985e+24 390.634 10705.7 
190 3.79e-05 133.709 1.98404e+24 391.376 10720.8 
191 3.81e-05 133.731 1.97891e+24 391.726 10702.7 
192 3.83e-05 133.818 1.97902e+24 391.969 10709.9 
193 3.85e-05 133.691 1.97474e+24 392.027 10688.3 
194 3.87e-05 133.75 1.97257e+24 393.56 10718.3 
195 3.89e-05 133.719 1.97845e+24 392.951 10733.6 
196 3.91e-05 133.751 1.97516e+24 394.408 10755.5 
197 3.93e-05 133.729 1.96952e+24 394.697 10732.6 
198 3.95e-05 133.591 1.96937e+24 395.426 10751.6 
199 3.97e-05 133.719 1.9694e+24 395.334 10749.3 
200 3.99e-05 133.868 1.96922e+24 395.364 10749.2 
