ITEM: TIMESTEP
100000
ITEM: NUMBER OF CELLS
200
ITEM: BOX BOUNDS pp ss pp
0 0.0001
0 4e-05
0 0.0001
ITEM: CELLS id yc f_rho[1] f_rho[2] f_state[1] f_state[2] 
1 1e-07 131.711 3.75982e+24 208.878 10842.8 
2 3e-07 131.552 3.73113e+24 209.837 10809.5 
3 5e-07 131.701 3.72112e+24 211.852 10884 
4 7e-07 131.031 3.65605e+24 214.171 10810.8 
5 9e-07 131.038 3.61448e+24 216.109 10784.6 
6 1.1e-06 131.021 3.60325e+24 217.573 10823.9 
7 1.3e-06 130.7 3.56705e+24 219.267 10798.6 
8 1.5e-06 130.539 3.53993e+24 221.098 10806 
9 1.7e-06 130.337 3.51831e+24 222.096 10788.4 
10 1.9e-06 130.454 3.50478e+24 223.725 10825.7 
11 2.1e-06 130.264 3.47946e+24 225.473 10831.5 
12 2.3e-06 130.147 3.45349e+24 226.197 10785.2 
13 2.5e-06 129.91 3.42321e+24 227.972 10774.5 
14 2.7e-06 130.048 3.42281e+24 228.78 10811.4 
15 2.9e-06 129.84 3.39035e+24 230.385 10784 
16 3.1e-06 129.546 3.36787e+24 231.797 10778.2 
17 3.3e-06 129.481 3.35305e+24 232.365 10757.1 
18 3.5e-06 129.447 3.32759e+24 234.337 10766 
19 3.7e-06 129.381 3.31353e+24 234.553 10730.4 
20 3.9e-06 129.285 3.29955e+24 235.864 10744.9 
21 4.1e-06 129.178 3.29003e+24 237.85 10804 
22 4.3e-06 129.18 3.28262e+24 238.343 10802 
23 4.5e-06 129.167 3.26199e+24 239.156 10770.8 
24 4.7e-06 128.882 3.24112e+24 241.119 10789.7 
25 4.9e-06 128.992 3.24099e+24 241.736 10816.9 
26 5.1e-06 128.674 3.20545e+24 243.43 10773.2 
27 5.3e-06 128.713 3.20292e+24 243.894 10785.2 
28 5.5e-06 128.691 3.18382e+24 245.374 10786 
29 5.7e-06 128.661 3.17401e+24 246.122 10785.5 
30 5.9e-06 128.62 3.15585e+24 248.126 10811.1 
31 6.1e-06 128.43 3.13785e+24 248.969 10786 
32 6.3e-06 128.356 3.11744e+24 250.455 10779.8 
33 6.5e-06 128.214 3.1067e+24 250.735 10754.7 
34 6.7e-06 128.126 3.09233e+24 251.702 10746.2 
35 6.9e-06 128.146 3.08975e+24 253.357 10807.9 
36 7.1e-06 127.967 3.06165e+24 255.417 10796.6 
37 7.3e-06 127.973 3.0634e+24 255.873 10822.1 
38 7.5e-06 127.834 3.04356e+24 257.461 10818.7 
39 7.7e-06 127.716 3.03351e+24 257.308 10776.6 
40 7.9e-06 127.69 3.02211e+24 258.743 10796 
41 8.1e-06 127.688 3.01431e+24 260.325 10834 
42 8.3e-06 127.551 2.99507e+24 261.202 10801.1 
43 8.5e-06 127.388 2.97065e+24 262.657 10772.7 
44 8.7e-06 127.329 2.96104e+24 263.743 10782.2 
45 8.9e-06 127.413 2.95075e+24 264.387 10771 
46 9.1e-06 127.324 2.94496e+24 265.019 10775.6 
47 9.3e-06 127.171 2.92913e+24 266.154 10763.5 
48 9.5e-06 127.105 2.90803e+24 267.612 10744.5 
49 9.7e-06 127.054 2.92002e+24 268.167 10811.2 
50 9.9e-06 127.077 2.90375e+24 268.779 10775.5 
51 1.01e-05 127.135 2.89775e+24 269.637 10787.5 
52 1.03e-05 127.041 2.88285e+24 271.725 10815.2 
53 1.05e-05 126.768 2.86221e+24 272.964 10786.8 
54 1.07e-05 126.685 2.85433e+24 273.543 10779.9 
55 1.09e-05 126.752 2.85154e+24 274.2 10795.2 
56 1.11e-05 126.622 2.82543e+24 275.666 10753.5 
57 1.13e-05 126.672 2.83541e+24 275.864 10799.3 
58 1.15e-05 126.472 2.81196e+24 277.084 10757.3 
59 1.17e-05 126.676 2.82242e+24 277.325 10806.7 
60 1.19e-05 126.63 2.80568e+24 276.946 10728 
61 1.21e-05 126.416 2.7864e+24 278.871 10728.3 
62 1.23e-05 126.455 2.78566e+24 280.448 10786.1 
63 1.25e-05 126.398 2.76718e+24 282.13 10778.8 
64 1.27e-05 126.173 2.75638e+24 282.608 10754.9 
65 1.29e-05 126.335 2.75206e+24 283.777 10782.5 
66 1.31e-05 126.214 2.73103e+24 285.505 10765.2 
67 1.33e-05 126.025 2.71306e+24 288.089 10791.2 
68 1.35e-05 125.85 2.70473e+24 287.725 10744.4 
69 1.37e-05 125.845 2.69393e+24 289.164 10755.1 
70 1.39e-05 125.937 2.69301e+24 290.015 10783.1 
71 1.41e-05 125.916 2.69388e+24 290.503 10804.7 
72 1.43e-05 125.677 2.66702e+24 291.919 10749.1 
73 1.45e-05 125.8 2.66756e+24 294.051 10829.8 
74 1.47e-05 125.642 2.64815e+24 293.186 10719.4 
75 1.49e-05 125.724 2.65617e+24 294.411 10796.8 
76 1.51e-05 125.518 2.63292e+24 296.321 10771.7 
77 1.53e-05 125.412 2.6181e+24 297.042 10737.1 
78 1.55e-05 125.443 2.61144e+24 298.375 10757.9 
79 1.57e-05 125.44 2.61392e+24 298.64 10777.6 
80 1.59e-05 125.462 2.60176e+24 299.872 10771.8 
81 1.61e-05 125.457 2.59843e+24 300.44 10778.3 
82 1.63e-05 125.294 2.58608e+24 301.348 10759.5 
83 1.65e-05 125.275 2.58253e+24 301.82 10761.6 
84 1.67e-05 125.372 2.57304e+24 303.688 10788.4 
85 1.69e-05 125.17 2.56143e+24 305.095 10789.5 
86 1.71e-05 125.142 2.55988e+24 305.789 10807.5 
87 1.73e-05 125.02 2.54162e+24 306.949 10771.1 
88 1.75e-05 124.932 2.53753e+24 307.218 10763.2 
89 1.77e-05 125.024 2.53254e+24 308.701 10793.9 
90 1.79e-05 124.913 2.52684e+24 308.447 10760.7 
91 1.81e-05 124.979 2.51563e+24 309.692 10756.2 
92 1.83e-05 124.783 2.50885e+24 310.953 10770.9 
93 1.85e-05 124.77 2.49861e+24 312.581 10783.1 
94 1.87e-05 124.765 2.4886e+24 313.264 10763.3 
95 1.89e-05 124.772 2.48656e+24 312.62 10732.4 
96 1.91e-05 124.778 2.48576e+24 313.204 10749 
97 1.93e-05 124.75 2.47429e+24 315.117 10764.8 
98 1.95e-05 124.57 2.46033e+24 316.437 10748.9 
99 1.97e-05 124.512 2.45349e+24 318.321 10782.8 
100 1.99e-05 124.413 2.44472e+24 318.683 10756.5 
101 2.01e-05 124.361 2.43726e+24 319.869 10763.6 
102 2.03e-05 124.444 2.42867e+24 320.987 10763.2 
103 2.05e-05 124.388 2.41898e+24 321.881 10750 
104 2.07e-05 124.415 2.42084e+24 322.889 10792 
105 2.09e-05 124.544 2.41905e+24 323.831 10815.5 
106 2.11e-05 124.252 2.4056e+24 323.415 10741.5 
107 2.13e-05 124.207 2.38941e+24 324.74 10713 
108 2.15e-05 124.176 2.39334e+24 326.085 10775 
109 2.17e-05 124.235 2.3886e+24 326.949 10782.2 
110 2.19e-05 124.209 2.37811e+24 327.555 10754.7 
111 2.21e-05 124.15 2.37457e+24 328.385 10765.9 
112 2.23e-05 124.133 2.36881e+24 329.727 10783.7 
113 2.25e-05 123.988 2.36711e+24 330.45 10799.6 
114 2.27e-05 123.999 2.36416e+24 330.071 10773.7 
115 2.29e-05 123.883 2.35104e+24 331.468 10759.3 
116 2.31e-05 123.871 2.34604e+24 331.36 10732.9 
117 2.33e-05 123.899 2.34485e+24 332.286 10757.5 
118 2.35e-05 123.865 2.34317e+24 332.77 10765.4 
119 2.37e-05 123.956 2.33394e+24 333.756 10754.8 
120 2.39e-05 123.878 2.32458e+24 334.759 10743.8 
121 2.41e-05 123.728 2.31587e+24 336.38 10755.4 
122 2.43e-05 123.747 2.31238e+24 337.958 10789.6 
123 2.45e-05 123.743 2.30685e+24 337.79 10758.4 
124 2.47e-05 123.69 2.30576e+24 337.79 10753.3 
125 2.49e-05 123.685 2.29856e+24 339.966 10788.8 
126 2.51e-05 123.675 2.2972e+24 339.056 10753.6 
127 2.53e-05 123.591 2.27921e+24 341.33 10740.9 
128 2.55e-05 123.568 2.27717e+24 342.4 10764.9 
129 2.57e-05 123.501 2.26673e+24 343.737 10757.5 
130 2.59e-05 123.445 2.25762e+24 344.808 10747.6 
131 2.61e-05 123.353 2.24357e+24 345.564 10704.1 
132 2.63e-05 123.387 2.24169e+24 346.55 10725.7 
133 2.65e-05 123.288 2.24158e+24 347.39 10751.1 
134 2.67e-05 123.363 2.24369e+24 347.13 10753.2 
135 2.69e-05 123.364 2.23873e+24 348.42 10769.3 
136 2.71e-05 123.173 2.22264e+24 349.15 10714.3 
137 2.73e-05 123.167 2.21781e+24 351.477 10762.3 
138 2.75e-05 123.137 2.21922e+24 351.401 10766.8 
139 2.77e-05 123.092 2.20616e+24 352.643 10741.3 
140 2.79e-05 123.194 2.20449e+24 352.81 10738.2 
141 2.81e-05 123.205 2.20742e+24 353.646 10778 
142 2.83e-05 122.915 2.19473e+24 354.943 10755.3 
143 2.85e-05 123.031 2.1884e+24 355.197 10732 
144 2.87e-05 122.98 2.18532e+24 356.06 10742.9 
145 2.89e-05 123.252 2.1834e+24 356.795 10755.6 
146 2.91e-05 123.008 2.17364e+24 358.119 10747.3 
147 2.93e-05 123.012 2.1771e+24 359.075 10793.1 
148 2.95e-05 122.956 2.17393e+24 360.118 10808.7 
149 2.97e-05 122.81 2.16565e+24 361.775 10817.1 
150 2.99e-05 122.803 2.15231e+24 362.141 10761.3 
151 3.01e-05 122.835 2.15205e+24 362.478 10770.1 
152 3.03e-05 122.704 2.14448e+24 364.428 10789.9 
153 3.05e-05 122.769 2.14051e+24 365.165 10791.7 
154 3.07e-05 122.777 2.12815e+24 366.71 10774.8 
155 3.09e-05 122.742 2.12193e+24 367.658 10771.1 
156 3.11e-05 122.763 2.11903e+24 369.081 10798 
157 3.13e-05 122.654 2.11623e+24 369.188 10786.8 
158 3.15e-05 122.903 2.12326e+24 369.014 10817.6 
159 3.17e-05 122.668 2.10618e+24 369.987 10758.8 
160 3.19e-05 122.733 2.09894e+24 371.567 10767.7 
161 3.21e-05 122.501 2.08828e+24 373.179 10759.4 
162 3.23e-05 122.416 2.08662e+24 372.897 10742.7 
163 3.25e-05 122.498 2.09074e+24 373.123 10770.5 
164 3.27e-05 122.434 2.08188e+24 373.118 10724.7 
165 3.29e-05 122.404 2.07685e+24 374.474 10737.7 
166 3.31e-05 122.417 2.07409e+24 376.335 10776.7 
167 3.33e-05 122.489 2.07065e+24 375.92 10747 
168 3.35e-05 122.2 2.0519e+24 376.998 10680.2 
169 3.37e-05 122.309 2.05612e+24 378.197 10736.2 
170 3.39e-05 122.188 2.05105e+24 378.74 10725.1 
171 3.41e-05 122.369 2.05139e+24 379.926 10760.4 
172 3.43e-05 122.35 2.04321e+24 380.711 10739.7 
173 3.45e-05 122.087 2.03569e+24 382.443 10748.9 
174 3.47e-05 122.241 2.04082e+24 381.96 10762.3 
175 3.49e-05 122.114 2.03503e+24 383.852 10785 
176 3.51e-05 122.187 2.02767e+24 384.208 10755.9 
177 3.53e-05 122.165 2.03264e+24 385.121 10807.9 
178 3.55e-05 122.19 2.03126e+24 384.538 10784.2 
179 3.57e-05 122.225 2.02432e+24 386.145 10792.3 
180 3.59e-05 122.211 2.01365e+24 386.607 10748.2 
181 3.61e-05 122.048 2.01278e+24 387.31 10763.1 
182 3.63e-05 122.027 2.00087e+24 388.788 10740.3 
183 3.65e-05 121.947 2.00553e+24 388.112 10746.6 
184 3.67e-05 121.801 1.99154e+24 389.663 10714.3 
185 3.69e-05 122.178 1.99874e+24 389.718 10754.5 
186 3.71e-05 121.846 1.98597e+24 391.171 10725.6 
187 3.73e-05 121.94 1.98019e+24 392.413 10728.4 
188 3.75e-05 121.706 1.9739e+24 394.229 10743.8 
189 3.77e-05 121.833 1.97699e+24 393.036 10728 
190 3.79e-05 121.698 1.97982e+24 393.966 10768.8 
191 3.81e-05 121.865 1.98206e+24 393.708 10773.9 
192 3.83e-05 121.76 1.97262e+24 394.757 10751.2 
193 3.85e-05 122.039 1.97294e+24 395.039 10760.7 
194 3.87e-05 121.821 1.97051e+24 395.531 10760.8 
195 3.89e-05 121.705 1.96883e+24 396.494 10777.8 
196 3.91e-05 121.867 1.97147e+24 396.962 10804.9 
197 3.93e-05 121.801 1.96741e+24 397.448 10795.9 
198 3.95e-05 121.854 1.96635e+24 396.763 10771.5 
199 3.97e-05 121.579 1.96279e+24 397.447 10770.5 
200 3.99e-05 121.603 1.9757e+24 396.354 10811.5 
