ITEM: TIMESTEP
100000
ITEM: NUMBER OF CELLS
200
ITEM: BOX BOUNDS pp ss pp
0 0.0001
0 4e-05
0 0.0001
ITEM: CELLS id yc f_rho[1] f_rho[2] f_state[1] f_state[2] 
1 1e-07 134.827 3.92049e+24 222.517 12044.4 
2 3e-07 133.97 3.78357e+24 228.937 11959.2 
3 5e-07 133.225 3.71254e+24 232.921 11938.8 
4 7e-07 132.904 3.67069e+24 235.777 11949 
5 9e-07 132.68 3.61849e+24 238.359 11908.1 
6 1.1e-06 132.534 3.58741e+24 240.49 11911.4 
7 1.3e-06 132.286 3.57438e+24 241.253 11905.7 
8 1.5e-06 132.195 3.54626e+24 243.131 11904 
9 1.7e-06 132.077 3.52263e+24 244.815 11906.6 
10 1.9e-06 132.139 3.50887e+24 246.439 11938.8 
11 2.1e-06 131.934 3.47456e+24 247.616 11878.5 
12 2.3e-06 131.91 3.45763e+24 249.956 11932.3 
13 2.5e-06 131.77 3.45082e+24 250.614 11940.2 
14 2.7e-06 131.44 3.42217e+24 252.377 11924.3 
15 2.9e-06 131.243 3.39963e+24 252.923 11871.5 
16 3.1e-06 131.259 3.38891e+24 254.818 11922.6 
17 3.3e-06 130.754 3.36443e+24 256.214 11901.4 
18 3.5e-06 130.791 3.34805e+24 257.486 11902.3 
19 3.7e-06 131.004 3.32834e+24 258.884 11896.4 
20 3.9e-06 130.876 3.32496e+24 260.263 11947.6 
21 4.1e-06 130.664 3.2995e+24 262.391 11953.1 
22 4.3e-06 130.88 3.30271e+24 262.864 11986.3 
23 4.5e-06 130.263 3.27544e+24 264.702 11970.4 
24 4.7e-06 130.223 3.25822e+24 265.587 11947.3 
25 4.9e-06 129.941 3.23864e+24 266.388 11911.4 
26 5.1e-06 130.104 3.21803e+24 266.969 11861.4 
27 5.3e-06 129.926 3.20399e+24 268.289 11868 
28 5.5e-06 129.892 3.18942e+24 270.217 11898.9 
29 5.7e-06 129.934 3.17363e+24 271.806 11909.6 
30 5.9e-06 129.983 3.16162e+24 272.98 11915.8 
31 6.1e-06 129.808 3.14399e+24 274.702 11924.1 
32 6.3e-06 129.519 3.12736e+24 275.801 11908.5 
33 6.5e-06 129.635 3.11901e+24 277.258 11939.5 
34 6.7e-06 129.692 3.10079e+24 277.621 11885.2 
35 6.9e-06 129.262 3.07776e+24 279.231 11865.4 
36 7.1e-06 129.457 3.0724e+24 280.773 11910.1 
37 7.3e-06 129.093 3.05658e+24 281.585 11883.1 
38 7.5e-06 129.1 3.04239e+24 282.751 11876.9 
39 7.7e-06 128.858 3.03666e+24 283.472 11884.8 
40 7.9e-06 129.005 3.03103e+24 284.874 11921.4 
41 8.1e-06 128.555 3.00287e+24 286.049 11859.3 
42 8.3e-06 129.026 3.00072e+24 287.22 11899.4 
43 8.5e-06 128.429 2.98177e+24 287.591 11839.5 
44 8.7e-06 128.369 2.96676e+24 289.745 11868.1 
45 8.9e-06 128.735 2.96579e+24 291.018 11916.3 
46 9.1e-06 128.661 2.97014e+24 291.081 11936.4 
47 9.3e-06 128.658 2.95015e+24 292.902 11930.2 
48 9.5e-06 128.271 2.93123e+24 293.763 11888.6 
49 9.7e-06 128.137 2.92876e+24 295.359 11943.1 
50 9.9e-06 128.013 2.91416e+24 296.362 11923.9 
51 1.01e-05 128.184 2.89746e+24 298.284 11932.5 
52 1.03e-05 127.984 2.88401e+24 299.985 11944.8 
53 1.05e-05 128.195 2.87554e+24 299.59 11894.1 
54 1.07e-05 128.301 2.86231e+24 301.645 11920.5 
55 1.09e-05 128.047 2.84754e+24 302.549 11894.6 
56 1.11e-05 128.026 2.84509e+24 303.94 11939 
57 1.13e-05 127.965 2.83493e+24 305.051 11939.8 
58 1.15e-05 127.669 2.81173e+24 306.528 11899.5 
59 1.17e-05 127.478 2.79956e+24 308.104 11908.8 
60 1.19e-05 127.486 2.80077e+24 309.273 11959.2 
61 1.21e-05 127.399 2.78736e+24 310.352 11943.5 
62 1.23e-05 127.385 2.77102e+24 311.456 11915.7 
63 1.25e-05 127.226 2.7609e+24 313.089 11934.5 
64 1.27e-05 127.275 2.74786e+24 314.936 11948.2 
65 1.29e-05 126.856 2.73676e+24 314.646 11888.9 
66 1.31e-05 127.146 2.72801e+24 317.145 11945 
67 1.33e-05 126.983 2.71632e+24 317.558 11909.3 
68 1.35e-05 126.869 2.71478e+24 318.179 11925.8 
69 1.37e-05 126.645 2.69229e+24 319.481 11875.5 
70 1.39e-05 126.834 2.67811e+24 320.517 11851.2 
71 1.41e-05 126.9 2.67734e+24 320.826 11859.2 
72 1.43e-05 126.736 2.67472e+24 323.008 11928.2 
73 1.45e-05 126.972 2.6692e+24 323.93 11937.6 
74 1.47e-05 126.409 2.6565e+24 324.507 11901.9 
75 1.49e-05 126.422 2.65283e+24 324.803 11896.3 
76 1.51e-05 126.801 2.63136e+24 326.828 11873.6 
77 1.53e-05 126.715 2.64275e+24 327.59 11952.8 
78 1.55e-05 126.332 2.61181e+24 329.19 11870.6 
79 1.57e-05 126.05 2.60894e+24 330.465 11903.4 
80 1.59e-05 126.32 2.61298e+24 330.459 11921.7 
81 1.61e-05 125.925 2.58643e+24 331.945 11853.6 
82 1.63e-05 126.165 2.58748e+24 332.446 11876.3 
83 1.65e-05 126.216 2.57687e+24 334.225 11890.9 
84 1.67e-05 125.976 2.56067e+24 335.199 11850.6 
85 1.69e-05 125.991 2.55847e+24 336.743 11895 
86 1.71e-05 126.105 2.54367e+24 338.001 11870.3 
87 1.73e-05 125.826 2.54049e+24 339.656 11913.5 
88 1.75e-05 125.653 2.524e+24 340.412 11862.5 
89 1.77e-05 125.809 2.52925e+24 341.804 11935.8 
90 1.79e-05 125.578 2.52361e+24 341.969 11915 
91 1.81e-05 125.661 2.52032e+24 343.382 11948.6 
92 1.83e-05 125.731 2.50946e+24 344.345 11930.5 
93 1.85e-05 125.495 2.50116e+24 344.986 11913.2 
94 1.87e-05 125.543 2.49856e+24 346.992 11970 
95 1.89e-05 125.31 2.48227e+24 347.584 11912.2 
96 1.91e-05 125.323 2.47599e+24 349.45 11945.9 
97 1.93e-05 125.115 2.46667e+24 349.887 11915.8 
98 1.95e-05 125.34 2.44932e+24 350.488 11852.3 
99 1.97e-05 125.37 2.44333e+24 352.929 11905.6 
100 1.99e-05 124.907 2.42882e+24 354.114 11874.7 
101 2.01e-05 125.072 2.4239e+24 355.399 11893.6 
102 2.03e-05 125.132 2.41764e+24 355.998 11882.9 
103 2.05e-05 125.26 2.42731e+24 356.506 11947.4 
104 2.07e-05 124.938 2.40422e+24 357.726 11874.3 
105 2.09e-05 124.839 2.40946e+24 359.762 11967.9 
106 2.11e-05 125.021 2.40514e+24 360.049 11956 
107 2.13e-05 124.878 2.38577e+24 360.88 11887.1 
108 2.15e-05 124.664 2.36906e+24 362.497 11856.7 
109 2.17e-05 125.018 2.3743e+24 362.488 11882.6 
110 2.19e-05 124.726 2.36877e+24 363.315 11882 
111 2.21e-05 124.844 2.36185e+24 364.579 11888.5 
112 2.23e-05 124.571 2.34985e+24 365.934 11872.1 
113 2.25e-05 124.397 2.34756e+24 366.398 11875.5 
114 2.27e-05 124.577 2.34066e+24 368.898 11921.4 
115 2.29e-05 124.341 2.32505e+24 370.732 11900.8 
116 2.31e-05 124.141 2.31694e+24 371.522 11884.5 
117 2.33e-05 124.534 2.32165e+24 371.826 11918.5 
118 2.35e-05 124.301 2.31452e+24 371.893 11884 
119 2.37e-05 124.575 2.31133e+24 373.169 11908.3 
120 2.39e-05 124.339 2.29853e+24 373.92 11866.2 
121 2.41e-05 124.626 2.30021e+24 374.576 11895.7 
122 2.43e-05 123.956 2.29472e+24 375.464 11895.5 
123 2.45e-05 124.126 2.28409e+24 377.274 11897.4 
124 2.47e-05 123.921 2.27199e+24 378.17 11862.5 
125 2.49e-05 123.874 2.26729e+24 378.845 11859.1 
126 2.51e-05 124.107 2.27286e+24 379.446 11907.1 
127 2.53e-05 124.216 2.27831e+24 379.259 11929.7 
128 2.55e-05 123.864 2.25931e+24 381.228 11891.7 
129 2.57e-05 124.253 2.2628e+24 381.593 11921.5 
130 2.59e-05 124.145 2.25551e+24 382.623 11915.2 
131 2.61e-05 123.808 2.24818e+24 382.204 11863.4 
132 2.63e-05 123.94 2.24015e+24 383.495 11861 
133 2.65e-05 123.825 2.23776e+24 384.098 11867 
134 2.67e-05 123.593 2.23401e+24 385.916 11903.1 
135 2.69e-05 124.097 2.23124e+24 386.253 11898.8 
136 2.71e-05 123.811 2.22401e+24 386.536 11868.9 
137 2.73e-05 123.675 2.21389e+24 388.995 11890 
138 2.75e-05 124.049 2.22866e+24 388.552 11955.7 
139 2.77e-05 123.818 2.20855e+24 389.877 11888.3 
140 2.79e-05 123.898 2.20228e+24 390.421 11871 
141 2.81e-05 123.637 2.19553e+24 390.749 11844.6 
142 2.83e-05 123.499 2.17957e+24 393.737 11848.4 
143 2.85e-05 123.467 2.17932e+24 394.353 11865.6 
144 2.87e-05 123.739 2.18641e+24 395.383 11935.3 
145 2.89e-05 123.181 2.16657e+24 397.256 11883 
146 2.91e-05 123.207 2.16309e+24 397.923 11883.8 
147 2.93e-05 123.371 2.16408e+24 398.814 11915.9 
148 2.95e-05 123.33 2.16078e+24 398.738 11895.4 
149 2.97e-05 123.236 2.14843e+24 398.964 11834.2 
150 2.99e-05 123.231 2.15221e+24 399.088 11858.7 
151 3.01e-05 123.193 2.14248e+24 400.853 11857.3 
152 3.03e-05 123.319 2.14096e+24 401.248 11860.5 
153 3.05e-05 123.3 2.1224e+24 402.746 11801.6 
154 3.07e-05 123.278 2.12777e+24 404.352 11878.7 
155 3.09e-05 123.137 2.12233e+24 405.391 11878.7 
156 3.11e-05 123.231 2.12229e+24 406.361 11906.9 
157 3.13e-05 123.264 2.11657e+24 408.509 11937.6 
158 3.15e-05 123.031 2.10558e+24 408.522 11876 
159 3.17e-05 123.271 2.10137e+24 409.084 11868.6 
160 3.19e-05 122.782 2.10475e+24 409.445 11898.2 
161 3.21e-05 123.038 2.0938e+24 409.881 11848.9 
162 3.23e-05 123.147 2.09063e+24 411.041 11864.4 
163 3.25e-05 122.84 2.08178e+24 412.549 11857.5 
164 3.27e-05 122.728 2.07243e+24 413.631 11835.2 
165 3.29e-05 122.728 2.07401e+24 415.796 11906.2 
166 3.31e-05 122.726 2.06681e+24 417.49 11913.2 
167 3.33e-05 122.616 2.06298e+24 418.311 11914.5 
168 3.35e-05 122.781 2.06891e+24 419.261 11975.9 
169 3.37e-05 123.139 2.05721e+24 419.497 11914.9 
170 3.39e-05 122.665 2.0578e+24 419.377 11914.9 
171 3.41e-05 122.881 2.05497e+24 419.451 11900.6 
172 3.43e-05 122.78 2.04609e+24 421.248 11900 
173 3.45e-05 122.643 2.03634e+24 422.559 11880.1 
174 3.47e-05 122.893 2.03373e+24 423.153 11881.6 
175 3.49e-05 122.804 2.03218e+24 424.117 11899.6 
176 3.51e-05 122.68 2.03062e+24 423.66 11877.6 
177 3.53e-05 122.47 2.02482e+24 424.934 11879.3 
178 3.55e-05 122.591 2.01537e+24 427.4 11892.5 
179 3.57e-05 122.144 2.01106e+24 427.472 11869.1 
180 3.59e-05 122.689 2.01009e+24 428.029 11878.8 
181 3.61e-05 122.279 2.00664e+24 427.716 11849.7 
182 3.63e-05 122.362 1.99227e+24 430.202 11833.3 
183 3.65e-05 121.969 1.98428e+24 431.502 11821.4 
184 3.67e-05 122.157 1.9835e+24 432.411 11841.7 
185 3.69e-05 122.395 1.98626e+24 434.944 11927.6 
186 3.71e-05 122.356 1.98289e+24 435.778 11930.2 
187 3.73e-05 122.271 1.98532e+24 435.245 11930.2 
188 3.75e-05 122.34 1.97966e+24 436.241 11923.4 
189 3.77e-05 122.314 1.97664e+24 436.113 11901.7 
190 3.79e-05 122.049 1.97764e+24 435.962 11903.6 
191 3.81e-05 122.255 1.98347e+24 436.656 11957.7 
192 3.83e-05 121.962 1.97542e+24 437.097 11921.2 
193 3.85e-05 122.444 1.97962e+24 436.36 11926.4 
194 3.87e-05 122.249 1.97579e+24 436.244 11900.2 
195 3.89e-05 122.325 1.98969e+24 437.576 12020.5 
196 3.91e-05 122.28 1.98226e+24 436.124 11935.8 
197 3.93e-05 122.516 1.99525e+24 434.272 11963 
198 3.95e-05 122.315 2.0104e+24 431.762 11984.2 
199 3.97e-05 122.575 2.023e+24 426.958 11925.1 
200 3.99e-05 122.807 2.07358e+24 419.404 12007 
