ITEM: TIMESTEP
100000
ITEM: NUMBER OF CELLS
200
ITEM: BOX BOUNDS pp ss pp
0 0.0001
0 4e-05
0 0.0001
ITEM: CELLS id yc f_rho[1] f_rho[2] f_state[1] f_state[2] 
1 1e-07 146.797 3.82697e+24 218.156 11526.7 
2 3e-07 145.814 3.72046e+24 224.362 11524.7 
3 5e-07 145.421 3.66495e+24 227.549 11514 
4 7e-07 145.107 3.62841e+24 230.103 11527.1 
5 9e-07 144.684 3.59795e+24 232.189 11534 
6 1.1e-06 144.367 3.56704e+24 233.945 11521.4 
7 1.3e-06 144.429 3.54052e+24 235.145 11494.4 
8 1.5e-06 144.258 3.52103e+24 236.94 11518.4 
9 1.7e-06 144.128 3.50144e+24 238.26 11518.1 
10 1.9e-06 144.083 3.48439e+24 240.15 11553 
11 2.1e-06 143.835 3.46261e+24 240.982 11520.5 
12 2.3e-06 143.554 3.43341e+24 243.094 11523.5 
13 2.5e-06 143.45 3.43102e+24 244.016 11559.1 
14 2.7e-06 143.535 3.41702e+24 244.129 11517.3 
15 2.9e-06 143.472 3.40376e+24 244.826 11505.4 
16 3.1e-06 143.095 3.37621e+24 246.18 11475.3 
17 3.3e-06 143.074 3.37144e+24 247.534 11522.2 
18 3.5e-06 142.931 3.35755e+24 249.159 11550 
19 3.7e-06 142.94 3.33167e+24 250.54 11524.5 
20 3.9e-06 142.833 3.32302e+24 251.325 11530.6 
21 4.1e-06 142.794 3.30304e+24 253.104 11542.4 
22 4.3e-06 142.487 3.29061e+24 253.9 11535.1 
23 4.5e-06 142.214 3.26659e+24 254.955 11498.5 
24 4.7e-06 142.16 3.24592e+24 255.551 11452.5 
25 4.9e-06 142.176 3.24156e+24 257.336 11516.9 
26 5.1e-06 141.972 3.22306e+24 258.956 11523.3 
27 5.3e-06 142.068 3.21998e+24 259.882 11553.5 
28 5.5e-06 142.044 3.1976e+24 261.625 11550.1 
29 5.7e-06 141.699 3.17853e+24 262.164 11504.9 
30 5.9e-06 141.632 3.16287e+24 263.003 11484.8 
31 6.1e-06 141.912 3.16095e+24 264.318 11535.3 
32 6.3e-06 141.686 3.14001e+24 265.757 11521.3 
33 6.5e-06 141.529 3.11993e+24 267.737 11532.8 
34 6.7e-06 141.291 3.11365e+24 268.073 11524.1 
35 6.9e-06 141.234 3.10009e+24 268.97 11512.3 
36 7.1e-06 141.301 3.08629e+24 271.061 11550.1 
37 7.3e-06 141.057 3.07295e+24 271.31 11510.8 
38 7.5e-06 140.898 3.05039e+24 272.908 11493.6 
39 7.7e-06 140.891 3.04295e+24 273.271 11480.8 
40 7.9e-06 140.851 3.03047e+24 274.381 11480.1 
41 8.1e-06 140.799 3.02092e+24 276.189 11519.4 
42 8.3e-06 140.727 3.00885e+24 277.935 11545.9 
43 8.5e-06 140.74 3.01028e+24 279.019 11596.4 
44 8.7e-06 140.632 2.98809e+24 280.759 11582.7 
45 8.9e-06 140.537 2.97537e+24 280.827 11536.2 
46 9.1e-06 140.316 2.96319e+24 281.927 11534 
47 9.3e-06 140.311 2.94969e+24 283.211 11533.7 
48 9.5e-06 140.19 2.94082e+24 283.795 11522.8 
49 9.7e-06 140.02 2.92159e+24 284.906 11492.2 
50 9.9e-06 140.018 2.91743e+24 285.782 11511.1 
51 1.01e-05 139.912 2.90037e+24 286.99 11492.2 
52 1.03e-05 140.02 2.89303e+24 288.623 11528.3 
53 1.05e-05 139.794 2.87531e+24 289.573 11495.5 
54 1.07e-05 139.7 2.86076e+24 290.119 11458.9 
55 1.09e-05 139.67 2.8598e+24 291.543 11511.2 
56 1.11e-05 139.732 2.85004e+24 293.374 11544 
57 1.13e-05 139.597 2.83996e+24 294.122 11532.5 
58 1.15e-05 139.44 2.8298e+24 296.198 11572.3 
59 1.17e-05 139.496 2.81176e+24 297.069 11532.4 
60 1.19e-05 139.373 2.80205e+24 297.889 11524.3 
61 1.21e-05 139.335 2.7967e+24 298.627 11530.8 
62 1.23e-05 139.122 2.79152e+24 299.722 11551.6 
63 1.25e-05 139.041 2.76907e+24 301.309 11519.4 
64 1.27e-05 139.022 2.76853e+24 301.612 11528.7 
65 1.29e-05 139.092 2.75911e+24 302.929 11539.7 
66 1.31e-05 138.874 2.74957e+24 304.001 11540.5 
67 1.33e-05 138.858 2.73173e+24 305.707 11529.9 
68 1.35e-05 138.839 2.71878e+24 306.612 11509.3 
69 1.37e-05 138.608 2.70186e+24 308.203 11497 
70 1.39e-05 138.745 2.69988e+24 308.95 11516.4 
71 1.41e-05 138.532 2.69684e+24 309.542 11525.4 
72 1.43e-05 138.618 2.69106e+24 310.211 11525.6 
73 1.45e-05 138.53 2.6756e+24 311.676 11513.5 
74 1.47e-05 138.533 2.66573e+24 313.061 11522 
75 1.49e-05 138.405 2.6569e+24 314.27 11528.2 
76 1.51e-05 138.284 2.64107e+24 315.646 11509.7 
77 1.53e-05 138.304 2.62954e+24 316.098 11475.8 
78 1.55e-05 138.275 2.62656e+24 317.771 11523.5 
79 1.57e-05 138.141 2.61373e+24 319.304 11522.5 
80 1.59e-05 138.082 2.60782e+24 320.474 11538.6 
81 1.61e-05 138.016 2.60652e+24 321.068 11554.2 
82 1.63e-05 138.064 2.59712e+24 321.963 11544.7 
83 1.65e-05 137.883 2.58464e+24 323.588 11547.2 
84 1.67e-05 137.891 2.5725e+24 323.796 11500.3 
85 1.69e-05 137.728 2.55707e+24 325.158 11479.4 
86 1.71e-05 137.705 2.5536e+24 326.131 11498.1 
87 1.73e-05 137.623 2.5507e+24 326.392 11494.3 
88 1.75e-05 137.689 2.55019e+24 328.083 11551.6 
89 1.77e-05 137.583 2.53887e+24 328.534 11516.1 
90 1.79e-05 137.62 2.52908e+24 329.225 11495.8 
91 1.81e-05 137.509 2.52141e+24 330.057 11489.9 
92 1.83e-05 137.371 2.51262e+24 331.114 11486.5 
93 1.85e-05 137.588 2.50911e+24 332.094 11504.4 
94 1.87e-05 137.439 2.49701e+24 333.72 11505 
95 1.89e-05 137.228 2.48417e+24 335.792 11516.9 
96 1.91e-05 137.344 2.48525e+24 335.162 11500.3 
97 1.93e-05 137.201 2.47137e+24 336.83 11493 
98 1.95e-05 137.089 2.4614e+24 338.361 11498.6 
99 1.97e-05 137.141 2.45456e+24 339.77 11514.4 
100 1.99e-05 136.996 2.44359e+24 340.936 11502.3 
101 2.01e-05 137.114 2.44205e+24 341.948 11529.2 
102 2.03e-05 136.932 2.42858e+24 342.888 11497.1 
103 2.05e-05 136.876 2.4283e+24 344.404 11546.6 
104 2.07e-05 136.879 2.41483e+24 345.466 11518 
105 2.09e-05 136.796 2.41527e+24 345.835 11532.3 
106 2.11e-05 136.697 2.39429e+24 347.367 11482.8 
107 2.13e-05 136.7 2.39303e+24 348.586 11517 
108 2.15e-05 136.722 2.39149e+24 349.003 11523.4 
109 2.17e-05 136.65 2.38468e+24 350.236 11531.2 
110 2.19e-05 136.627 2.38587e+24 350.959 11560.8 
111 2.21e-05 136.636 2.37605e+24 351.958 11545.9 
112 2.23e-05 136.632 2.36892e+24 352.606 11532.5 
113 2.25e-05 136.455 2.35602e+24 354.026 11515.9 
114 2.27e-05 136.493 2.35382e+24 355.041 11538.1 
115 2.29e-05 136.343 2.34739e+24 355.747 11529.5 
116 2.31e-05 136.287 2.34212e+24 356.683 11533.8 
117 2.33e-05 136.304 2.33632e+24 357.319 11525.8 
118 2.35e-05 136.417 2.33181e+24 358.734 11549.1 
119 2.37e-05 136.413 2.32634e+24 359.844 11557.7 
120 2.39e-05 136.209 2.31853e+24 360.716 11546.8 
121 2.41e-05 136.119 2.30428e+24 362.173 11522.2 
122 2.43e-05 136.102 2.30058e+24 363.591 11548.7 
123 2.45e-05 136.111 2.29349e+24 363.312 11504.3 
124 2.47e-05 135.996 2.28484e+24 364.882 11510.4 
125 2.49e-05 136.097 2.28331e+24 365.867 11533.8 
126 2.51e-05 136.245 2.2803e+24 367.534 11571 
127 2.53e-05 136.068 2.27247e+24 368.157 11550.8 
128 2.55e-05 135.857 2.26145e+24 369.226 11528.2 
129 2.57e-05 135.843 2.25641e+24 368.606 11483.2 
130 2.59e-05 135.907 2.25524e+24 369.762 11513.3 
131 2.61e-05 135.926 2.24855e+24 371.095 11520.5 
132 2.63e-05 135.631 2.23913e+24 371.604 11488 
133 2.65e-05 135.706 2.23435e+24 371.81 11469.8 
134 2.67e-05 135.762 2.22954e+24 373.69 11503 
135 2.69e-05 135.515 2.21908e+24 374.761 11481.8 
136 2.71e-05 135.493 2.21608e+24 375.447 11487.3 
137 2.73e-05 135.519 2.20572e+24 376.888 11477.5 
138 2.75e-05 135.545 2.19983e+24 378.417 11493.3 
139 2.77e-05 135.588 2.19978e+24 379.802 11535.1 
140 2.79e-05 135.318 2.19304e+24 379.981 11505.1 
141 2.81e-05 135.385 2.19092e+24 382.197 11561 
142 2.83e-05 135.544 2.18481e+24 382.766 11546 
143 2.85e-05 135.265 2.17541e+24 383.162 11508.2 
144 2.87e-05 135.557 2.17606e+24 384.226 11543.6 
145 2.89e-05 135.259 2.16558e+24 385.096 11514 
146 2.91e-05 135.255 2.16293e+24 386.217 11533.4 
147 2.93e-05 135.261 2.16008e+24 387.249 11549 
148 2.95e-05 135.207 2.15905e+24 387.883 11562.4 
149 2.97e-05 135.183 2.14914e+24 388.859 11538.2 
150 2.99e-05 135.186 2.14431e+24 390.623 11564.6 
151 3.01e-05 135.134 2.13977e+24 390.966 11550.2 
152 3.03e-05 134.899 2.1287e+24 392.083 11523.3 
153 3.05e-05 134.756 2.11074e+24 394.68 11501.8 
154 3.07e-05 134.971 2.1171e+24 395.236 11552.6 
155 3.09e-05 135.002 2.11509e+24 396.052 11565.5 
156 3.11e-05 135.042 2.11507e+24 396.429 11576.4 
157 3.13e-05 134.849 2.10075e+24 396.777 11508.1 
158 3.15e-05 134.867 2.09673e+24 396.971 11491.7 
159 3.17e-05 134.733 2.0953e+24 398.264 11521.3 
160 3.19e-05 134.89 2.0905e+24 400.274 11552.9 
161 3.21e-05 134.733 2.08721e+24 400.96 11554.5 
162 3.23e-05 134.728 2.07736e+24 402.074 11531.9 
163 3.25e-05 134.651 2.06887e+24 403.189 11516.6 
164 3.27e-05 134.623 2.07176e+24 402.918 11525 
165 3.29e-05 134.782 2.06764e+24 403.662 11523.3 
166 3.31e-05 134.601 2.06301e+24 405.081 11537.9 
167 3.33e-05 134.577 2.06139e+24 405.688 11546.1 
168 3.35e-05 134.401 2.05366e+24 407.146 11544.1 
169 3.37e-05 134.493 2.05159e+24 408.028 11557.5 
170 3.39e-05 134.544 2.04382e+24 408.888 11538 
171 3.41e-05 134.413 2.03823e+24 408.419 11493.3 
172 3.43e-05 134.392 2.03972e+24 410.416 11557.9 
173 3.45e-05 134.593 2.0422e+24 409.894 11557.2 
174 3.47e-05 134.328 2.02713e+24 411.059 11504.5 
175 3.49e-05 134.445 2.0245e+24 412.71 11535.8 
176 3.51e-05 134.447 2.02496e+24 413.282 11554.4 
177 3.53e-05 134.403 2.01605e+24 414.385 11534.2 
178 3.55e-05 134.221 2.01535e+24 414.852 11543.2 
179 3.57e-05 134.334 2.01026e+24 416.151 11550.1 
180 3.59e-05 134.255 2.00937e+24 416.298 11549.1 
181 3.61e-05 134.327 2.00373e+24 417.424 11547.8 
182 3.63e-05 134.238 1.99906e+24 419.1 11567.2 
183 3.65e-05 134.194 1.99659e+24 418.992 11549.9 
184 3.67e-05 134.066 1.98777e+24 420.485 11539.8 
185 3.69e-05 134.161 1.98988e+24 420.442 11550.9 
186 3.71e-05 133.904 1.97827e+24 422.335 11535.2 
187 3.73e-05 134.135 1.97652e+24 423.987 11570.1 
188 3.75e-05 134.086 1.97721e+24 423.208 11552.9 
189 3.77e-05 134.065 1.97471e+24 422.496 11518.8 
190 3.79e-05 133.934 1.96929e+24 424.835 11550.9 
191 3.81e-05 133.884 1.96502e+24 425.39 11540.8 
192 3.83e-05 133.845 1.96126e+24 426.26 11542.3 
193 3.85e-05 133.977 1.96443e+24 425.852 11549.9 
194 3.87e-05 133.874 1.96606e+24 425.912 11561.1 
195 3.89e-05 134.07 1.96971e+24 424.758 11551.2 
196 3.91e-05 133.92 1.9717e+24 424.684 11560.8 
197 3.93e-05 133.992 1.97597e+24 423.675 11558.3 
198 3.95e-05 134.154 1.98744e+24 421.867 11575.9 
199 3.97e-05 134.338 2.00545e+24 418.174 11578.5 
200 3.99e-05 134.754 2.03582e+24 413.748 11629.4 
