ITEM: TIMESTEP
250000
ITEM: NUMBER OF CELLS
200
ITEM: BOX BOUNDS pp ss pp
0 0.0001
0 4e-05
0 0.0001
ITEM: CELLS id yc f_rho[1] f_rho[2] f_state[1] f_state[2] 
1 1e-07 150.447 3.70323e+24 204.869 10474.7 
2 3e-07 149.181 3.67207e+24 206.978 10493.5 
3 5e-07 148.176 3.64731e+24 208.361 10492.4 
4 7e-07 146.918 3.61635e+24 209.92 10481.1 
5 9e-07 145.86 3.59031e+24 211.095 10463.9 
6 1.1e-06 145.12 3.57209e+24 212.251 10467.8 
7 1.3e-06 144.308 3.55211e+24 213.532 10472.1 
8 1.5e-06 143.605 3.53479e+24 214.814 10483.6 
9 1.7e-06 142.616 3.51045e+24 216.125 10474.9 
10 1.9e-06 142.303 3.50276e+24 217.033 10495.9 
11 2.1e-06 141.552 3.48426e+24 218.202 10496.7 
12 2.3e-06 140.744 3.46439e+24 219.639 10505.6 
13 2.5e-06 139.797 3.44106e+24 220.625 10481.7 
14 2.7e-06 139.336 3.42973e+24 221.429 10485.2 
15 2.9e-06 138.605 3.41173e+24 222.748 10492.3 
16 3.1e-06 137.965 3.39597e+24 223.509 10479.5 
17 3.3e-06 137.419 3.38255e+24 224.45 10482 
18 3.5e-06 136.917 3.37017e+24 225.504 10492.7 
19 3.7e-06 136.388 3.35717e+24 226.423 10494.9 
20 3.9e-06 135.79 3.34245e+24 227.341 10491.2 
21 4.1e-06 135.004 3.32309e+24 228.602 10488.3 
22 4.3e-06 134.092 3.30063e+24 229.896 10476.4 
23 4.5e-06 133.629 3.28924e+24 231.059 10493.1 
24 4.7e-06 132.92 3.27179e+24 232.194 10488.7 
25 4.9e-06 132.311 3.2568e+24 233.511 10499.8 
26 5.1e-06 131.673 3.2411e+24 234.653 10500.3 
27 5.3e-06 131.379 3.23387e+24 235.61 10519.6 
28 5.5e-06 130.435 3.21063e+24 236.701 10492.4 
29 5.7e-06 129.761 3.19404e+24 237.919 10491.9 
30 5.9e-06 128.991 3.17509e+24 239.245 10487.7 
31 6.1e-06 128.295 3.15796e+24 240.556 10488.3 
32 6.3e-06 127.748 3.14449e+24 241.309 10476.3 
33 6.5e-06 127.28 3.13296e+24 242.433 10486.5 
34 6.7e-06 126.599 3.1162e+24 243.26 10465.9 
35 6.9e-06 126.217 3.10679e+24 244.865 10503.2 
36 7.1e-06 125.354 3.08556e+24 246.095 10483.8 
37 7.3e-06 124.697 3.0694e+24 247.23 10477 
38 7.5e-06 124.225 3.05778e+24 248.598 10495.1 
39 7.7e-06 123.532 3.04072e+24 249.545 10476.3 
40 7.9e-06 123.063 3.02917e+24 250.623 10481.6 
41 8.1e-06 122.658 3.01919e+24 251.805 10496.4 
42 8.3e-06 122.257 3.00932e+24 252.592 10494.7 
43 8.5e-06 121.585 2.99278e+24 253.644 10480.5 
44 8.7e-06 121.338 2.98671e+24 254.179 10481.3 
45 8.9e-06 121.022 2.97893e+24 254.924 10484.7 
46 9.1e-06 120.055 2.95512e+24 257.136 10491.1 
47 9.3e-06 119.351 2.9378e+24 258.445 10482.7 
48 9.5e-06 119.031 2.92992e+24 259.034 10478.4 
49 9.7e-06 118.386 2.91403e+24 260.543 10482.3 
50 9.9e-06 117.937 2.90298e+24 261.888 10496.5 
51 1.01e-05 117.426 2.89041e+24 263.265 10506 
52 1.03e-05 116.945 2.87858e+24 263.763 10482.7 
53 1.05e-05 116.572 2.86939e+24 264.09 10462.2 
54 1.07e-05 116.194 2.86009e+24 264.817 10457 
55 1.09e-05 115.647 2.84663e+24 266.032 10455.6 
56 1.11e-05 115.573 2.84481e+24 266.967 10485.6 
57 1.13e-05 115.113 2.83349e+24 267.907 10480.6 
58 1.15e-05 114.635 2.82172e+24 269.182 10486.8 
59 1.17e-05 114.106 2.80868e+24 270.413 10486.1 
60 1.19e-05 113.735 2.79955e+24 271.196 10482.3 
61 1.21e-05 113.436 2.7922e+24 272.215 10494 
62 1.23e-05 113.11 2.78418e+24 273.053 10496.1 
63 1.25e-05 112.444 2.76777e+24 274.481 10488.8 
64 1.27e-05 111.954 2.75571e+24 275.682 10488.8 
65 1.29e-05 111.714 2.74981e+24 276.597 10501 
66 1.31e-05 111.251 2.73841e+24 277.333 10485.4 
67 1.33e-05 110.918 2.73022e+24 278.354 10492.5 
68 1.35e-05 110.377 2.71691e+24 279.559 10486.6 
69 1.37e-05 109.858 2.70412e+24 280.63 10477.1 
70 1.39e-05 109.329 2.6911e+24 282.027 10478.6 
71 1.41e-05 108.818 2.67853e+24 282.942 10463.5 
72 1.43e-05 108.568 2.67239e+24 283.64 10465.3 
73 1.45e-05 108.022 2.65893e+24 285.036 10463.8 
74 1.47e-05 107.786 2.65313e+24 286.428 10492 
75 1.49e-05 107.442 2.64465e+24 287.411 10494.4 
76 1.51e-05 107.066 2.63541e+24 288.068 10481.6 
77 1.53e-05 106.667 2.62558e+24 289.668 10500.5 
78 1.55e-05 106.151 2.61289e+24 290.58 10482.6 
79 1.57e-05 105.902 2.60675e+24 291.167 10479.1 
80 1.59e-05 105.52 2.59735e+24 292.737 10497.6 
81 1.61e-05 105.195 2.58936e+24 293.466 10491.4 
82 1.63e-05 104.742 2.5782e+24 294.1 10468.7 
83 1.65e-05 104.588 2.57441e+24 294.715 10475.2 
84 1.67e-05 104.339 2.56828e+24 295.786 10488.3 
85 1.69e-05 103.954 2.5588e+24 296.793 10485.1 
86 1.71e-05 103.618 2.55052e+24 297.781 10486 
87 1.73e-05 103.433 2.54598e+24 298.756 10501.6 
88 1.75e-05 103.183 2.53984e+24 299.157 10490.3 
89 1.77e-05 102.773 2.52972e+24 300.747 10504.1 
90 1.79e-05 102.354 2.51943e+24 301.306 10480.8 
91 1.81e-05 102.088 2.51288e+24 302.254 10486.4 
92 1.83e-05 101.765 2.50491e+24 303.216 10486.4 
93 1.85e-05 101.255 2.49238e+24 304.415 10475.2 
94 1.87e-05 100.967 2.48527e+24 305.346 10477.3 
95 1.89e-05 100.716 2.47911e+24 306.126 10478 
96 1.91e-05 100.684 2.47832e+24 306.621 10491.6 
97 1.93e-05 100.203 2.46648e+24 307.818 10482.3 
98 1.95e-05 99.8128 2.45687e+24 308.652 10469.7 
99 1.97e-05 99.5292 2.44989e+24 309.567 10470.9 
100 1.99e-05 99.3145 2.4446e+24 310.217 10470.2 
101 2.01e-05 99.132 2.44011e+24 310.912 10474.4 
102 2.03e-05 98.6217 2.42755e+24 312.321 10467.7 
103 2.05e-05 98.6261 2.42766e+24 313.111 10494.7 
104 2.07e-05 98.2887 2.41935e+24 313.728 10479.4 
105 2.09e-05 97.7977 2.40727e+24 314.698 10459.3 
106 2.11e-05 97.8012 2.40735e+24 315.359 10481.6 
107 2.13e-05 97.5542 2.40127e+24 316.529 10494 
108 2.15e-05 97.3184 2.39547e+24 317.083 10486.9 
109 2.17e-05 96.8865 2.38484e+24 318.45 10485.4 
110 2.19e-05 96.4953 2.37521e+24 319.295 10470.7 
111 2.21e-05 96.1761 2.36735e+24 320.816 10485.8 
112 2.23e-05 95.9648 2.36215e+24 321.842 10496.3 
113 2.25e-05 95.5062 2.35086e+24 322.674 10473.1 
114 2.27e-05 95.2322 2.34412e+24 323.754 10478 
115 2.29e-05 95.3 2.34579e+24 324.541 10511 
116 2.31e-05 94.9559 2.33732e+24 325.577 10506.4 
117 2.33e-05 94.8401 2.33447e+24 325.856 10502.6 
118 2.35e-05 94.4532 2.32494e+24 326.785 10489.6 
119 2.37e-05 94.1895 2.31845e+24 328.543 10516.5 
120 2.39e-05 94.0826 2.31582e+24 328.728 10510.5 
121 2.41e-05 93.5466 2.30263e+24 329.394 10471.8 
122 2.43e-05 93.5074 2.30166e+24 330.003 10486.8 
123 2.45e-05 93.2762 2.29597e+24 331.264 10500.9 
124 2.47e-05 92.9663 2.28834e+24 331.648 10478.1 
125 2.49e-05 92.8699 2.28597e+24 332.08 10480.8 
126 2.51e-05 92.6547 2.28067e+24 333.197 10491.7 
127 2.53e-05 92.2432 2.27055e+24 333.665 10459.8 
128 2.55e-05 91.9172 2.26252e+24 334.839 10459.5 
129 2.57e-05 91.6175 2.25514e+24 335.964 10460.4 
130 2.59e-05 91.5463 2.25339e+24 336.202 10459.7 
131 2.61e-05 91.4655 2.2514e+24 336.957 10473.9 
132 2.63e-05 91.3341 2.24817e+24 338.125 10495.1 
133 2.65e-05 90.9773 2.23938e+24 338.896 10478 
134 2.67e-05 90.7019 2.23261e+24 340.449 10494.1 
135 2.69e-05 90.5958 2.22999e+24 340.93 10496.7 
136 2.71e-05 90.3116 2.223e+24 341.708 10487.6 
137 2.73e-05 89.8903 2.21263e+24 342.716 10469.5 
138 2.75e-05 89.8564 2.21179e+24 343.055 10475.9 
139 2.77e-05 89.7481 2.20913e+24 344.165 10497.1 
140 2.79e-05 89.5784 2.20495e+24 344.868 10498.7 
141 2.81e-05 89.222 2.19618e+24 345.66 10480.9 
142 2.83e-05 88.924 2.18884e+24 347.007 10486.6 
143 2.85e-05 88.8012 2.18582e+24 348.165 10507.1 
144 2.87e-05 88.5675 2.18007e+24 348.303 10483.6 
145 2.89e-05 88.4775 2.17785e+24 348.324 10473.6 
146 2.91e-05 88.1268 2.16922e+24 349.378 10463.6 
147 2.93e-05 87.9392 2.1646e+24 350.082 10462.4 
148 2.95e-05 87.6751 2.1581e+24 351.778 10481.5 
149 2.97e-05 87.2471 2.14757e+24 352.899 10463.6 
150 2.99e-05 87.0512 2.14275e+24 354.286 10481.1 
151 3.01e-05 87.0795 2.14344e+24 354.984 10505.2 
152 3.03e-05 86.8074 2.13674e+24 355.527 10488.4 
153 3.05e-05 86.6185 2.13209e+24 356.055 10481.1 
154 3.07e-05 86.3506 2.1255e+24 356.998 10476.4 
155 3.09e-05 86.1304 2.12008e+24 357.688 10469.8 
156 3.11e-05 85.9755 2.11627e+24 358.573 10476.8 
157 3.13e-05 85.7741 2.11131e+24 359.02 10465.4 
158 3.15e-05 85.6393 2.10799e+24 359.522 10463.5 
159 3.17e-05 85.3733 2.10144e+24 361.107 10477 
160 3.19e-05 85.4251 2.10272e+24 361.187 10485.7 
161 3.21e-05 85.3909 2.10188e+24 361.306 10484.9 
162 3.23e-05 85.0443 2.09335e+24 362.408 10474.2 
163 3.25e-05 84.7251 2.08549e+24 363.759 10473.8 
164 3.27e-05 84.3903 2.07725e+24 364.889 10464.8 
165 3.29e-05 84.2051 2.07269e+24 365.703 10465.2 
166 3.31e-05 84.0968 2.07002e+24 366.643 10478.5 
167 3.33e-05 84.0951 2.06998e+24 366.924 10486.4 
168 3.35e-05 84.1468 2.07125e+24 367.262 10502.5 
169 3.37e-05 84.1425 2.07115e+24 368.032 10524 
170 3.39e-05 83.7283 2.06095e+24 368.309 10480.1 
171 3.41e-05 83.4927 2.05515e+24 369.149 10474.4 
172 3.43e-05 83.3539 2.05174e+24 370.526 10496 
173 3.45e-05 83.2752 2.0498e+24 371.182 10504.7 
174 3.47e-05 83.0311 2.04379e+24 371.763 10490.3 
175 3.49e-05 82.6385 2.03413e+24 373.373 10485.9 
176 3.51e-05 82.6589 2.03463e+24 373.719 10498.2 
177 3.53e-05 82.3952 2.02814e+24 374.362 10482.7 
178 3.55e-05 82.3918 2.02805e+24 374.66 10490.6 
179 3.57e-05 82.0326 2.01921e+24 376.148 10486.3 
180 3.59e-05 81.799 2.01346e+24 376.572 10468.3 
181 3.61e-05 81.6901 2.01078e+24 377.293 10474.4 
182 3.63e-05 81.4691 2.00534e+24 377.884 10462.4 
183 3.65e-05 81.4511 2.0049e+24 378.137 10467.1 
184 3.67e-05 81.4674 2.0053e+24 379.4 10504.1 
185 3.69e-05 81.3033 2.00126e+24 379.96 10498.4 
186 3.71e-05 81.2775 2.00063e+24 380.777 10517.7 
187 3.73e-05 80.9886 1.99352e+24 381.88 10510.7 
188 3.75e-05 80.6917 1.98621e+24 382.997 10502.7 
189 3.77e-05 80.4259 1.97967e+24 383.359 10478 
190 3.79e-05 80.5837 1.98355e+24 384.308 10524.6 
191 3.81e-05 80.1504 1.97288e+24 385.451 10499.1 
192 3.83e-05 79.9428 1.96777e+24 385.653 10477.4 
193 3.85e-05 79.7631 1.96335e+24 386.858 10486.5 
194 3.87e-05 79.5252 1.95749e+24 387.802 10480.8 
195 3.89e-05 79.6418 1.96036e+24 388.188 10506.6 
196 3.91e-05 79.4174 1.95484e+24 390.044 10527.1 
197 3.93e-05 79.0793 1.94652e+24 391.005 10508.1 
198 3.95e-05 78.976 1.94398e+24 391.15 10498.3 
199 3.97e-05 78.7668 1.93883e+24 392.502 10506.6 
200 3.99e-05 78.659 1.93617e+24 393.599 10521.6 
