ITEM: TIMESTEP
100000
ITEM: NUMBER OF CELLS
200
ITEM: BOX BOUNDS pp ss pp
0 0.0001
0 4e-05
0 0.0001
ITEM: CELLS id yc f_rho[1] f_rho[2] f_state[1] f_state[2] 
1 1e-07 134.504 3.92724e+24 221.948 12034.3 
2 3e-07 133.648 3.80015e+24 228.516 11989.5 
3 5e-07 133.423 3.71909e+24 233.416 11985.4 
4 7e-07 132.759 3.65385e+24 236.552 11933.3 
5 9e-07 132.771 3.62834e+24 237.758 11910.4 
6 1.1e-06 132.529 3.60774e+24 239.591 11934.1 
7 1.3e-06 132.184 3.55687e+24 242.811 11923.9 
8 1.5e-06 132.135 3.55761e+24 243.594 11964.9 
9 1.7e-06 131.927 3.51861e+24 245.228 11913.1 
10 1.9e-06 132.167 3.54255e+24 245.323 11998.8 
11 2.1e-06 131.72 3.49432e+24 247.219 11926.9 
12 2.3e-06 131.792 3.48212e+24 248.266 11935.6 
13 2.5e-06 131.62 3.4474e+24 250.737 11934.2 
14 2.7e-06 131.586 3.42996e+24 251.306 11900.8 
15 2.9e-06 131.839 3.42568e+24 252.309 11933.4 
16 3.1e-06 131.344 3.40165e+24 252.991 11881.7 
17 3.3e-06 131.42 3.38203e+24 255.369 11924.2 
18 3.5e-06 130.961 3.35869e+24 257.279 11930.4 
19 3.7e-06 130.973 3.34726e+24 258.37 11940.3 
20 3.9e-06 130.859 3.34601e+24 259.654 11995.2 
21 4.1e-06 130.649 3.30397e+24 261.638 11934.9 
22 4.3e-06 130.443 3.29223e+24 262.602 11936.4 
23 4.5e-06 130.532 3.28192e+24 263.984 11961.6 
24 4.7e-06 130.277 3.25902e+24 265.848 11962 
25 4.9e-06 130.137 3.24264e+24 266.464 11929.5 
26 5.1e-06 130.141 3.2411e+24 267.159 11954.9 
27 5.3e-06 129.989 3.21358e+24 268.483 11912.1 
28 5.5e-06 129.731 3.19896e+24 270.261 11936.5 
29 5.7e-06 130.049 3.19433e+24 271.619 11979.1 
30 5.9e-06 129.895 3.17438e+24 272.43 11939.8 
31 6.1e-06 129.943 3.1558e+24 274.652 11966.7 
32 6.3e-06 130.328 3.16695e+24 274.634 12008.2 
33 6.5e-06 129.17 3.10584e+24 276.626 11861.9 
34 6.7e-06 129.624 3.1418e+24 276.426 11990.6 
35 6.9e-06 129.541 3.11043e+24 278.243 11948.9 
36 7.1e-06 129.239 3.09393e+24 279.292 11930.3 
37 7.3e-06 129.212 3.0837e+24 280.44 11939.8 
38 7.5e-06 129.084 3.05716e+24 282.237 11912.9 
39 7.7e-06 129.099 3.05358e+24 282.87 11925.5 
40 7.9e-06 129.03 3.0341e+24 284.673 11925 
41 8.1e-06 129.242 3.0211e+24 285.897 11925 
42 8.3e-06 128.908 3.01797e+24 286.49 11937.3 
43 8.5e-06 128.455 2.99178e+24 288.167 11903 
44 8.7e-06 128.792 2.99608e+24 288.393 11929.5 
45 8.9e-06 128.51 2.97646e+24 290.634 11943.4 
46 9.1e-06 128.361 2.96861e+24 290.499 11906.4 
47 9.3e-06 128.553 2.95702e+24 293.17 11969 
48 9.5e-06 128.517 2.94319e+24 293.917 11943.4 
49 9.7e-06 128.516 2.92789e+24 295.275 11936.2 
50 9.9e-06 128.25 2.911e+24 297.155 11942.9 
51 1.01e-05 128.06 2.88944e+24 298.008 11888.4 
52 1.03e-05 128.179 2.88619e+24 298.588 11898.2 
53 1.05e-05 127.954 2.87717e+24 300.832 11950.1 
54 1.07e-05 127.814 2.86749e+24 301.896 11952.1 
55 1.09e-05 127.493 2.83428e+24 304.385 11911 
56 1.11e-05 127.707 2.84258e+24 303.298 11903.3 
57 1.13e-05 127.663 2.82541e+24 305.247 11907.4 
58 1.15e-05 127.559 2.81007e+24 306.552 11893.3 
59 1.17e-05 127.414 2.79264e+24 308.615 11899.1 
60 1.19e-05 127.402 2.79833e+24 308.585 11922.2 
61 1.21e-05 127.421 2.7878e+24 310.387 11946.7 
62 1.23e-05 127.597 2.77533e+24 310.967 11915.5 
63 1.25e-05 127.512 2.77717e+24 312.134 11968.1 
64 1.27e-05 127.24 2.75609e+24 313.234 11919.2 
65 1.29e-05 127.134 2.75554e+24 312.963 11906.5 
66 1.31e-05 127.181 2.74369e+24 313.778 11886.1 
67 1.33e-05 127.016 2.72833e+24 315.598 11888.1 
68 1.35e-05 126.943 2.72688e+24 316.705 11923.5 
69 1.37e-05 126.865 2.71012e+24 318.996 11936 
70 1.39e-05 126.75 2.69967e+24 319.749 11918 
71 1.41e-05 126.897 2.69321e+24 321.791 11965.4 
72 1.43e-05 126.832 2.67805e+24 322.742 11933.2 
73 1.45e-05 126.925 2.67176e+24 324.024 11952.5 
74 1.47e-05 126.484 2.68222e+24 323.374 11975.2 
75 1.49e-05 126.614 2.65352e+24 324.967 11905.4 
76 1.51e-05 126.648 2.66152e+24 325.477 11960.1 
77 1.53e-05 126.421 2.6411e+24 327.142 11929 
78 1.55e-05 126.413 2.62966e+24 327.909 11905.2 
79 1.57e-05 126.737 2.61783e+24 329.862 11922.2 
80 1.59e-05 126.28 2.59676e+24 330.96 11865.6 
81 1.61e-05 126.404 2.59207e+24 331.812 11874.7 
82 1.63e-05 126.059 2.59561e+24 332.309 11908.7 
83 1.65e-05 126.207 2.57956e+24 333.6 11881 
84 1.67e-05 126.215 2.57772e+24 334.731 11912.8 
85 1.69e-05 126.051 2.56022e+24 336.761 11903.7 
86 1.71e-05 125.901 2.56002e+24 337.334 11923 
87 1.73e-05 126.069 2.54783e+24 338.27 11899.2 
88 1.75e-05 125.854 2.54052e+24 340.028 11926.7 
89 1.77e-05 125.825 2.53706e+24 341.233 11952.7 
90 1.79e-05 125.538 2.52723e+24 341.385 11911.7 
91 1.81e-05 125.748 2.51916e+24 343.531 11948.3 
92 1.83e-05 125.868 2.50436e+24 344.213 11901.7 
93 1.85e-05 125.451 2.50857e+24 344.462 11930.3 
94 1.87e-05 125.69 2.48596e+24 347.23 11917.8 
95 1.89e-05 125.348 2.48966e+24 346.475 11909.5 
96 1.91e-05 125.31 2.45232e+24 349.27 11825.6 
97 1.93e-05 125.679 2.46778e+24 350.287 11934.8 
98 1.95e-05 125.308 2.44859e+24 352.019 11900.5 
99 1.97e-05 125.281 2.44974e+24 351.644 11893.4 
100 1.99e-05 125.289 2.44743e+24 352.647 11916.1 
101 2.01e-05 125.116 2.44007e+24 354.857 11954.7 
102 2.03e-05 125.121 2.43142e+24 355.143 11921.9 
103 2.05e-05 125.282 2.42224e+24 356.003 11905.7 
104 2.07e-05 125.241 2.42636e+24 356.804 11952.8 
105 2.09e-05 125.055 2.40547e+24 360.433 11970.4 
106 2.11e-05 125.142 2.40161e+24 360.372 11949.2 
107 2.13e-05 124.969 2.3939e+24 360.455 11913.5 
108 2.15e-05 125.044 2.38895e+24 361.894 11936.4 
109 2.17e-05 124.478 2.37502e+24 362.669 11892.2 
110 2.19e-05 124.959 2.36302e+24 364.437 11889.8 
111 2.21e-05 124.494 2.36275e+24 365.574 11925.5 
112 2.23e-05 124.537 2.34664e+24 366.654 11879.2 
113 2.25e-05 124.301 2.34043e+24 367.505 11875.2 
114 2.27e-05 124.308 2.34106e+24 368.326 11905 
115 2.29e-05 124.443 2.32652e+24 368.964 11851.5 
116 2.31e-05 124.409 2.3296e+24 368.935 11866.2 
117 2.33e-05 124.708 2.33067e+24 368.821 11868.1 
118 2.35e-05 124.515 2.32255e+24 371.622 11916.5 
119 2.37e-05 124.394 2.30663e+24 373.972 11909.7 
120 2.39e-05 124.077 2.30279e+24 374.626 11910.7 
121 2.41e-05 124.314 2.30715e+24 375.324 11955.4 
122 2.43e-05 124.194 2.28729e+24 376.765 11898 
123 2.45e-05 124.304 2.2807e+24 377.491 11886.6 
124 2.47e-05 123.771 2.26809e+24 379.221 11875.1 
125 2.49e-05 124.087 2.26068e+24 379.348 11840.2 
126 2.51e-05 124.037 2.25864e+24 380.48 11864.8 
127 2.53e-05 124.096 2.26257e+24 382.256 11941 
128 2.55e-05 123.909 2.24735e+24 383.755 11907.2 
129 2.57e-05 124.106 2.24225e+24 385.787 11943 
130 2.59e-05 123.856 2.23494e+24 386.041 11911.9 
131 2.61e-05 123.808 2.22924e+24 387.328 11921.2 
132 2.63e-05 123.821 2.23429e+24 387.945 11967.2 
133 2.65e-05 123.643 2.21418e+24 387.937 11859.3 
134 2.67e-05 124.002 2.22651e+24 388.47 11941.7 
135 2.69e-05 123.844 2.21745e+24 388.965 11908.3 
136 2.71e-05 123.828 2.21246e+24 389.586 11900.4 
137 2.73e-05 123.595 2.195e+24 390.298 11828.1 
138 2.75e-05 123.66 2.18887e+24 392.725 11868.3 
139 2.77e-05 123.644 2.19809e+24 393.161 11931.6 
140 2.79e-05 123.367 2.18252e+24 394.952 11901 
141 2.81e-05 123.563 2.18483e+24 394.92 11912.7 
142 2.83e-05 123.631 2.17424e+24 397.55 11933.9 
143 2.85e-05 123.28 2.15237e+24 399.215 11863.3 
144 2.87e-05 123.399 2.1643e+24 398.644 11912 
145 2.89e-05 123.499 2.16166e+24 401.081 11970.2 
146 2.91e-05 123.263 2.16152e+24 401.496 11981.8 
147 2.93e-05 123.373 2.15234e+24 402.767 11968.7 
148 2.95e-05 123.235 2.13504e+24 403.082 11881.8 
149 2.97e-05 123.339 2.13609e+24 404.257 11922.3 
150 2.99e-05 123.127 2.12871e+24 405.244 11910.1 
151 3.01e-05 123.312 2.12901e+24 406.211 11940.2 
152 3.03e-05 123.071 2.13028e+24 406.304 11950.1 
153 3.05e-05 122.877 2.11534e+24 407.958 11914.6 
154 3.07e-05 123.103 2.11372e+24 408.927 11933.7 
155 3.09e-05 122.994 2.10649e+24 408.93 11893 
156 3.11e-05 123.153 2.09581e+24 410.859 11888.5 
157 3.13e-05 122.864 2.10248e+24 411.921 11957.2 
158 3.15e-05 123.015 2.0903e+24 412.871 11915.3 
159 3.17e-05 123.003 2.0868e+24 413.882 11924.5 
160 3.19e-05 122.843 2.07843e+24 414.24 11887 
161 3.21e-05 122.688 2.08277e+24 414.431 11917.3 
162 3.23e-05 122.804 2.07689e+24 415.705 11920.2 
163 3.25e-05 122.609 2.05933e+24 416.769 11849.6 
164 3.27e-05 122.966 2.06389e+24 417.613 11899.9 
165 3.29e-05 122.745 2.07471e+24 418.266 11981 
166 3.31e-05 122.932 2.06236e+24 419.032 11931.5 
167 3.33e-05 122.828 2.04603e+24 420.232 11871 
168 3.35e-05 122.512 2.04104e+24 421.133 11867.3 
169 3.37e-05 122.576 2.04166e+24 422.83 11918.8 
170 3.39e-05 122.712 2.03878e+24 422.868 11903 
171 3.41e-05 122.72 2.03065e+24 424.334 11896.7 
172 3.43e-05 122.419 2.02599e+24 424.977 11887.4 
173 3.45e-05 122.694 2.01841e+24 425.527 11858.2 
174 3.47e-05 122.637 2.01273e+24 426.066 11839.9 
175 3.49e-05 122.553 2.02007e+24 425.508 11867.4 
176 3.51e-05 122.451 2.02072e+24 426.619 11902.2 
177 3.53e-05 122.94 2.01923e+24 428.049 11933.4 
178 3.55e-05 122.388 2.0108e+24 429.315 11918.7 
179 3.57e-05 122.483 1.99893e+24 432.152 11926.6 
180 3.59e-05 122.287 1.99156e+24 432.931 11904.1 
181 3.61e-05 122.441 1.99538e+24 434.199 11961.8 
182 3.63e-05 122.378 1.98994e+24 433.855 11919.8 
183 3.65e-05 122.39 1.98851e+24 433.055 11889.3 
184 3.67e-05 122.228 1.97956e+24 434.963 11887.9 
185 3.69e-05 122.144 1.98153e+24 434.613 11890.2 
186 3.71e-05 122.318 1.97563e+24 434.475 11851 
187 3.73e-05 122.159 1.96736e+24 436.422 11854.2 
188 3.75e-05 122.151 1.97828e+24 436.131 11912.1 
189 3.77e-05 122.247 1.97156e+24 437.858 11918.7 
190 3.79e-05 122.114 1.96909e+24 438.114 11910.7 
191 3.81e-05 121.995 1.96092e+24 438.226 11864.3 
192 3.83e-05 122.139 1.96807e+24 438.261 11908.5 
193 3.85e-05 122.232 1.96576e+24 438.41 11898.5 
194 3.87e-05 121.923 1.97569e+24 437.187 11925.3 
195 3.89e-05 122.395 1.97906e+24 436.18 11918.1 
196 3.91e-05 122.311 1.98838e+24 436.868 11993.1 
197 3.93e-05 122.267 1.98752e+24 435.163 11941.2 
198 3.95e-05 122.369 2.01598e+24 430.563 11984.1 
199 3.97e-05 122.498 2.02548e+24 427.053 11942.5 
200 3.99e-05 122.733 2.09003e+24 419.152 12095 
