ITEM: TIMESTEP
300000
ITEM: NUMBER OF CELLS
200
ITEM: BOX BOUNDS pp ss pp
0 0.0001
0 4e-05
0 0.0001
ITEM: CELLS id yc f_rho[1] f_rho[2] f_state[1] f_state[2] 
1 1e-07 142.746 3.71074e+24 207.772 10644.6 
2 3e-07 142.618 3.67883e+24 209.469 10639.3 
3 5e-07 142.444 3.65323e+24 211.022 10643.6 
4 7e-07 142.27 3.62413e+24 212.692 10642.4 
5 9e-07 142.12 3.60016e+24 214.665 10670.1 
6 1.1e-06 141.951 3.5685e+24 216.263 10654.9 
7 1.3e-06 141.755 3.54178e+24 217.852 10652.9 
8 1.5e-06 141.595 3.5207e+24 219.038 10647.1 
9 1.7e-06 141.543 3.50583e+24 220.373 10666.8 
10 1.9e-06 141.401 3.48179e+24 221.886 10666.4 
11 2.1e-06 141.331 3.4586e+24 223.486 10671.7 
12 2.3e-06 141.067 3.43492e+24 224.508 10647.1 
13 2.5e-06 141.004 3.41418e+24 226.217 10663.4 
14 2.7e-06 140.984 3.40763e+24 227.08 10683.5 
15 2.9e-06 140.842 3.3911e+24 228.04 10676.6 
16 3.1e-06 140.75 3.3682e+24 229.163 10656.8 
17 3.3e-06 140.673 3.35659e+24 230.314 10673.4 
18 3.5e-06 140.546 3.33775e+24 231.247 10656.5 
19 3.7e-06 140.432 3.31725e+24 232.595 10652.8 
20 3.9e-06 140.263 3.29732e+24 233.946 10650.3 
21 4.1e-06 140.257 3.28758e+24 234.816 10658.3 
22 4.3e-06 140.161 3.2713e+24 236.296 10672.3 
23 4.5e-06 140.048 3.25782e+24 237.042 10661.9 
24 4.7e-06 139.985 3.24404e+24 238.428 10678.9 
25 4.9e-06 139.925 3.23116e+24 239.444 10681.9 
26 5.1e-06 139.847 3.21493e+24 240.43 10671.9 
27 5.3e-06 139.74 3.19917e+24 241.529 10668.1 
28 5.5e-06 139.609 3.17572e+24 242.846 10647.7 
29 5.7e-06 139.564 3.16575e+24 244.202 10673.6 
30 5.9e-06 139.454 3.1516e+24 245.616 10687.4 
31 6.1e-06 139.372 3.13694e+24 246.603 10680.4 
32 6.3e-06 139.358 3.12822e+24 247.442 10686.9 
33 6.5e-06 139.212 3.11159e+24 248.535 10677.1 
34 6.7e-06 139.112 3.09251e+24 250.025 10675.2 
35 6.9e-06 139.019 3.08377e+24 250.796 10677.9 
36 7.1e-06 138.962 3.07016e+24 251.896 10677.4 
37 7.3e-06 138.839 3.05089e+24 253.154 10663.4 
38 7.5e-06 138.763 3.0426e+24 253.796 10661.4 
39 7.7e-06 138.694 3.02962e+24 254.832 10659.2 
40 7.9e-06 138.652 3.0167e+24 256.26 10673.2 
41 8.1e-06 138.626 3.0068e+24 257.488 10689.2 
42 8.3e-06 138.501 2.98882e+24 258.104 10650.7 
43 8.5e-06 138.396 2.97965e+24 259.263 10665.7 
44 8.7e-06 138.342 2.97035e+24 259.941 10660.2 
45 8.9e-06 138.352 2.96168e+24 260.898 10668.2 
46 9.1e-06 138.218 2.95081e+24 262.137 10679.6 
47 9.3e-06 138.149 2.93559e+24 263.261 10670 
48 9.5e-06 138.17 2.92891e+24 264.1 10679.7 
49 9.7e-06 138.06 2.9155e+24 265.529 10688.3 
50 9.9e-06 137.94 2.90333e+24 266.209 10670.9 
51 1.01e-05 137.877 2.89021e+24 267.227 10663.3 
52 1.03e-05 137.85 2.88306e+24 268.29 10679.3 
53 1.05e-05 137.788 2.87097e+24 269.473 10681.4 
54 1.07e-05 137.712 2.86184e+24 270.308 10680.4 
55 1.09e-05 137.591 2.84492e+24 271.53 10665.2 
56 1.11e-05 137.547 2.8345e+24 272.872 10678.7 
57 1.13e-05 137.483 2.82397e+24 273.511 10663.9 
58 1.15e-05 137.452 2.81534e+24 274.415 10666.5 
59 1.17e-05 137.335 2.80563e+24 275.481 10671 
60 1.19e-05 137.23 2.79147e+24 276.355 10650.8 
61 1.21e-05 137.179 2.78044e+24 277.647 10658.4 
62 1.23e-05 137.24 2.77424e+24 278.425 10664.4 
63 1.25e-05 137.116 2.76414e+24 279.223 10656 
64 1.27e-05 137.052 2.75436e+24 280.641 10672.2 
65 1.29e-05 137.049 2.74659e+24 281.34 10668.6 
66 1.31e-05 136.902 2.7307e+24 282.68 10657.4 
67 1.33e-05 136.957 2.73217e+24 282.912 10671.9 
68 1.35e-05 136.857 2.72296e+24 283.602 10661.9 
69 1.37e-05 136.866 2.71645e+24 285.161 10694.9 
70 1.39e-05 136.718 2.7034e+24 285.962 10673.4 
71 1.41e-05 136.687 2.69145e+24 286.803 10657.4 
72 1.43e-05 136.616 2.6825e+24 288.001 10666.4 
73 1.45e-05 136.596 2.67621e+24 288.754 10669.2 
74 1.47e-05 136.507 2.66182e+24 290.043 10659.2 
75 1.49e-05 136.403 2.65374e+24 290.899 10658.2 
76 1.51e-05 136.381 2.6465e+24 291.847 10663.8 
77 1.53e-05 136.45 2.64279e+24 292.878 10686.4 
78 1.55e-05 136.342 2.63251e+24 294.167 10691.7 
79 1.57e-05 136.247 2.62392e+24 295.241 10695.7 
80 1.59e-05 136.189 2.61509e+24 295.682 10675.7 
81 1.61e-05 136.127 2.6076e+24 296.361 10669.5 
82 1.63e-05 136.144 2.59875e+24 297.523 10675 
83 1.65e-05 136.061 2.59014e+24 298.587 10677.7 
84 1.67e-05 136.05 2.58431e+24 299.274 10678.2 
85 1.69e-05 135.984 2.57487e+24 300.471 10681.7 
86 1.71e-05 135.941 2.57364e+24 301.197 10702.4 
87 1.73e-05 135.876 2.56128e+24 302.374 10692.6 
88 1.75e-05 135.844 2.54908e+24 303.255 10672.7 
89 1.77e-05 135.757 2.53964e+24 304.584 10679.8 
90 1.79e-05 135.647 2.52749e+24 305.906 10674.8 
91 1.81e-05 135.593 2.51712e+24 306.832 10663.2 
92 1.83e-05 135.586 2.51326e+24 307.458 10668.6 
93 1.85e-05 135.573 2.51081e+24 308.179 10683.2 
94 1.87e-05 135.504 2.4981e+24 309.344 10669.3 
95 1.89e-05 135.463 2.49374e+24 310.1 10676.7 
96 1.91e-05 135.458 2.49034e+24 310.796 10686.1 
97 1.93e-05 135.342 2.48059e+24 311.861 10680.7 
98 1.95e-05 135.335 2.4741e+24 312.485 10674.1 
99 1.97e-05 135.303 2.46586e+24 313.148 10661.1 
100 1.99e-05 135.264 2.45764e+24 314.352 10666.4 
101 2.01e-05 135.202 2.45126e+24 315.456 10676.1 
102 2.03e-05 135.148 2.44613e+24 316.201 10678.9 
103 2.05e-05 135.125 2.43644e+24 317.466 10679.2 
104 2.07e-05 135.049 2.42957e+24 318.366 10679.2 
105 2.09e-05 134.997 2.41929e+24 319.471 10670.9 
106 2.11e-05 134.965 2.40777e+24 320.878 10666.9 
107 2.13e-05 134.927 2.40291e+24 321.626 10670.2 
108 2.15e-05 134.879 2.39649e+24 322.878 10683.1 
109 2.17e-05 134.868 2.39471e+24 323.408 10692.7 
110 2.19e-05 134.805 2.38753e+24 324.297 10689.9 
111 2.21e-05 134.823 2.3832e+24 325.204 10700.4 
112 2.23e-05 134.726 2.37478e+24 326.208 10695.5 
113 2.25e-05 134.666 2.36515e+24 326.887 10674.3 
114 2.27e-05 134.616 2.3573e+24 327.761 10667.3 
115 2.29e-05 134.665 2.35205e+24 328.749 10675.7 
116 2.31e-05 134.536 2.34355e+24 329.74 10669.1 
117 2.33e-05 134.499 2.33917e+24 330.598 10676.9 
118 2.35e-05 134.45 2.32939e+24 331.753 10669.4 
119 2.37e-05 134.415 2.32602e+24 332.71 10684.7 
120 2.39e-05 134.397 2.31877e+24 333.777 10685.5 
121 2.41e-05 134.407 2.3161e+24 334.334 10691 
122 2.43e-05 134.331 2.30906e+24 335.415 10693 
123 2.45e-05 134.321 2.30194e+24 336.205 10685.2 
124 2.47e-05 134.194 2.29071e+24 337.119 10662 
125 2.49e-05 134.223 2.2885e+24 337.764 10672 
126 2.51e-05 134.177 2.28081e+24 338.254 10651.6 
127 2.53e-05 134.088 2.27349e+24 339.817 10666.5 
128 2.55e-05 134.111 2.26928e+24 340.673 10673.5 
129 2.57e-05 134.105 2.26899e+24 340.934 10680.3 
130 2.59e-05 134.073 2.2649e+24 341.485 10678.3 
131 2.61e-05 133.975 2.25777e+24 342.772 10684.9 
132 2.63e-05 133.959 2.25132e+24 343.052 10663 
133 2.65e-05 133.939 2.24445e+24 344.299 10669.1 
134 2.67e-05 133.877 2.23487e+24 345.366 10656.5 
135 2.69e-05 133.842 2.23062e+24 346.733 10678.3 
136 2.71e-05 133.795 2.2242e+24 347.239 10663.1 
137 2.73e-05 133.84 2.22342e+24 348.019 10683.4 
138 2.75e-05 133.771 2.21882e+24 349.044 10692.6 
139 2.77e-05 133.707 2.21099e+24 349.847 10679.5 
140 2.79e-05 133.723 2.20306e+24 350.984 10675.7 
141 2.81e-05 133.649 2.19573e+24 352.15 10675.5 
142 2.83e-05 133.539 2.18958e+24 352.646 10660.7 
143 2.85e-05 133.599 2.18488e+24 353.814 10673 
144 2.87e-05 133.528 2.18197e+24 354.311 10673.8 
145 2.89e-05 133.53 2.18086e+24 354.86 10684.8 
146 2.91e-05 133.481 2.17487e+24 355.984 10689.2 
147 2.93e-05 133.451 2.16743e+24 356.982 10682.6 
148 2.95e-05 133.404 2.16429e+24 357.701 10688.6 
149 2.97e-05 133.402 2.15926e+24 359.227 10709.2 
150 2.99e-05 133.358 2.15153e+24 359.992 10693.6 
151 3.01e-05 133.32 2.14298e+24 360.705 10672.2 
152 3.03e-05 133.286 2.14008e+24 361.523 10681.9 
153 3.05e-05 133.253 2.1344e+24 362.183 10673 
154 3.07e-05 133.241 2.13307e+24 362.71 10681.9 
155 3.09e-05 133.173 2.12612e+24 363.568 10672.3 
156 3.11e-05 133.127 2.12214e+24 364.649 10684 
157 3.13e-05 133.079 2.11475e+24 365.604 10674.6 
158 3.15e-05 133.094 2.11318e+24 366.284 10686.6 
159 3.17e-05 133.06 2.10947e+24 366.983 10688.1 
160 3.19e-05 133.057 2.10688e+24 367.807 10699 
161 3.21e-05 133.04 2.10153e+24 368.415 10689.5 
162 3.23e-05 132.98 2.09764e+24 369.16 10691.3 
163 3.25e-05 132.958 2.08874e+24 370.26 10677.6 
164 3.27e-05 132.935 2.08546e+24 371.082 10684.5 
165 3.29e-05 132.843 2.0765e+24 372.122 10668.4 
166 3.31e-05 132.846 2.07307e+24 372.388 10658.4 
167 3.33e-05 132.861 2.07252e+24 373.449 10686 
168 3.35e-05 132.763 2.06518e+24 374.041 10665 
169 3.37e-05 132.835 2.06453e+24 374.985 10688.5 
170 3.39e-05 132.714 2.05891e+24 375.621 10677.5 
171 3.41e-05 132.702 2.05388e+24 376.413 10673.9 
172 3.43e-05 132.695 2.05181e+24 377.113 10683 
173 3.45e-05 132.686 2.0452e+24 378.04 10674.8 
174 3.47e-05 132.589 2.03892e+24 378.968 10668.1 
175 3.49e-05 132.561 2.03633e+24 379.685 10674.7 
176 3.51e-05 132.523 2.0297e+24 380.442 10661.2 
177 3.53e-05 132.615 2.03035e+24 381.045 10681.5 
178 3.55e-05 132.515 2.0249e+24 382.051 10680.9 
179 3.57e-05 132.504 2.02132e+24 382.333 10669.9 
180 3.59e-05 132.515 2.01682e+24 383.369 10675 
181 3.61e-05 132.444 2.00961e+24 384.274 10661.9 
182 3.63e-05 132.462 2.00879e+24 384.96 10676.6 
183 3.65e-05 132.455 2.00538e+24 385.364 10669.7 
184 3.67e-05 132.406 1.99843e+24 386.665 10668.6 
185 3.69e-05 132.395 1.99965e+24 386.89 10681.3 
186 3.71e-05 132.381 1.99592e+24 387.621 10681.5 
187 3.73e-05 132.349 1.9923e+24 388.39 10683.3 
188 3.75e-05 132.344 1.98999e+24 388.91 10685.2 
189 3.77e-05 132.287 1.9853e+24 389.35 10672.1 
190 3.79e-05 132.221 1.9819e+24 390.202 10677.1 
191 3.81e-05 132.228 1.97941e+24 390.638 10675.7 
192 3.83e-05 132.248 1.97773e+24 391.579 10692.3 
193 3.85e-05 132.2 1.97233e+24 392.353 10684.2 
194 3.87e-05 132.175 1.96789e+24 393.056 10679.2 
195 3.89e-05 132.196 1.96815e+24 393.844 10702 
196 3.91e-05 132.158 1.96551e+24 394.022 10692.5 
197 3.93e-05 132.144 1.96349e+24 394.455 10693.2 
198 3.95e-05 132.114 1.96281e+24 394.811 10699.2 
199 3.97e-05 132.076 1.95615e+24 395.561 10683.2 
200 3.99e-05 132.064 1.95366e+24 396.878 10705.1 
