ITEM: TIMESTEP
200000
ITEM: NUMBER OF CELLS
200
ITEM: BOX BOUNDS pp ss pp
0 0.0001
0 4e-05
0 0.0001
ITEM: CELLS id yc f_rho[1] f_rho[2] f_state[1] f_state[2] 
1 1e-07 150.404 3.70217e+24 205.027 10479.7 
2 3e-07 149.273 3.67431e+24 206.914 10496.6 
3 5e-07 148.26 3.64937e+24 208.204 10490.4 
4 7e-07 147.027 3.61903e+24 209.868 10486.3 
5 9e-07 146.029 3.59446e+24 211.103 10476.4 
6 1.1e-06 145.164 3.57317e+24 212.267 10471.8 
7 1.3e-06 144.366 3.55353e+24 213.663 10482.7 
8 1.5e-06 143.789 3.53932e+24 214.889 10500.7 
9 1.7e-06 142.703 3.5126e+24 216.112 10480.7 
10 1.9e-06 142.38 3.50464e+24 217.075 10503.6 
11 2.1e-06 141.726 3.48856e+24 218.055 10502.5 
12 2.3e-06 140.828 3.46645e+24 219.603 10510.1 
13 2.5e-06 139.983 3.44566e+24 220.567 10492.9 
14 2.7e-06 139.405 3.43141e+24 221.416 10489.8 
15 2.9e-06 138.635 3.41248e+24 222.627 10488.9 
16 3.1e-06 138.137 3.40021e+24 223.417 10488.3 
17 3.3e-06 137.615 3.38735e+24 224.419 10495.5 
18 3.5e-06 137.07 3.37394e+24 225.465 10502.7 
19 3.7e-06 136.44 3.35844e+24 226.275 10492 
20 3.9e-06 135.674 3.33958e+24 227.464 10487.9 
21 4.1e-06 134.99 3.32275e+24 228.65 10489.4 
22 4.3e-06 134.204 3.30339e+24 229.798 10480.7 
23 4.5e-06 133.788 3.29315e+24 230.875 10497.2 
24 4.7e-06 132.892 3.27111e+24 232.368 10494.3 
25 4.9e-06 132.341 3.25754e+24 233.617 10507 
26 5.1e-06 131.481 3.23637e+24 234.864 10494.4 
27 5.3e-06 131.292 3.23172e+24 235.801 10521.1 
28 5.5e-06 130.434 3.2106e+24 236.599 10487.8 
29 5.7e-06 129.69 3.19228e+24 237.759 10479 
30 5.9e-06 128.945 3.17396e+24 239.321 10487.3 
31 6.1e-06 128.134 3.15399e+24 240.755 10483.8 
32 6.3e-06 127.546 3.13951e+24 241.648 10474.4 
33 6.5e-06 127.077 3.12798e+24 242.708 10481.7 
34 6.7e-06 126.362 3.11038e+24 243.697 10465.2 
35 6.9e-06 125.871 3.09829e+24 245.383 10496.6 
36 7.1e-06 125.175 3.08116e+24 246.677 10493.6 
37 7.3e-06 124.636 3.06789e+24 247.653 10489.8 
38 7.5e-06 124.049 3.05345e+24 249.211 10506.1 
39 7.7e-06 123.327 3.03566e+24 250.194 10486.1 
40 7.9e-06 122.917 3.02558e+24 251.119 10489.9 
41 8.1e-06 122.436 3.01374e+24 252.22 10494.7 
42 8.3e-06 121.948 3.00171e+24 253.017 10485.8 
43 8.5e-06 121.418 2.98868e+24 254.054 10483.1 
44 8.7e-06 121.261 2.98482e+24 254.553 10490.1 
45 8.9e-06 120.837 2.97437e+24 255.439 10489.7 
46 9.1e-06 120.024 2.95436e+24 257.351 10497.2 
47 9.3e-06 119.426 2.93963e+24 258.483 10490.8 
48 9.5e-06 118.88 2.9262e+24 259.324 10476.8 
49 9.7e-06 118.298 2.91188e+24 260.752 10482.9 
50 9.9e-06 117.888 2.90179e+24 262.228 10505.8 
51 1.01e-05 117.313 2.88764e+24 263.482 10504.5 
52 1.03e-05 116.905 2.87758e+24 263.926 10485.6 
53 1.05e-05 116.474 2.86698e+24 264.202 10457.9 
54 1.07e-05 116.085 2.85741e+24 265.152 10460.5 
55 1.09e-05 115.628 2.84615e+24 266.164 10459 
56 1.11e-05 115.522 2.84356e+24 266.879 10477.5 
57 1.13e-05 115.349 2.83929e+24 267.662 10492.5 
58 1.15e-05 114.738 2.82426e+24 268.838 10482.8 
59 1.17e-05 114.187 2.81067e+24 270.184 10484.6 
60 1.19e-05 113.725 2.79932e+24 271.394 10489 
61 1.21e-05 113.554 2.79511e+24 272.189 10503.9 
62 1.23e-05 113.18 2.78589e+24 273.269 10510.8 
63 1.25e-05 112.566 2.77078e+24 274.482 10500.2 
64 1.27e-05 112.131 2.76007e+24 275.413 10495.1 
65 1.29e-05 111.804 2.75202e+24 276.294 10498 
66 1.31e-05 111.381 2.74162e+24 276.936 10482.7 
67 1.33e-05 111.14 2.73567e+24 278.016 10500.7 
68 1.35e-05 110.464 2.71906e+24 279.617 10497 
69 1.37e-05 109.827 2.70338e+24 280.78 10479.9 
70 1.39e-05 109.276 2.6898e+24 282.16 10478.5 
71 1.41e-05 108.779 2.67756e+24 283.007 10462.1 
72 1.43e-05 108.581 2.67269e+24 283.784 10471.7 
73 1.45e-05 108.087 2.66054e+24 285.24 10477.7 
74 1.47e-05 107.743 2.65208e+24 286.651 10496 
75 1.49e-05 107.444 2.64472e+24 287.369 10493.1 
76 1.51e-05 107.138 2.63717e+24 287.936 10483.7 
77 1.53e-05 106.654 2.62525e+24 289.547 10494.8 
78 1.55e-05 106.197 2.61402e+24 290.321 10477.8 
79 1.57e-05 106 2.60917e+24 290.726 10473 
80 1.59e-05 105.53 2.5976e+24 292.371 10485.5 
81 1.61e-05 105.18 2.58898e+24 293.438 10488.8 
82 1.63e-05 104.779 2.57912e+24 294.161 10474.7 
83 1.65e-05 104.724 2.57776e+24 294.636 10486.1 
84 1.67e-05 104.403 2.56985e+24 295.578 10487.3 
85 1.69e-05 104.037 2.56084e+24 296.362 10478.2 
86 1.71e-05 103.637 2.551e+24 297.403 10474.7 
87 1.73e-05 103.564 2.54919e+24 298.586 10508.9 
88 1.75e-05 103.344 2.54378e+24 299.102 10504.7 
89 1.77e-05 102.863 2.53195e+24 300.669 10510.6 
90 1.79e-05 102.33 2.51882e+24 301.415 10482 
91 1.81e-05 102.197 2.51555e+24 302.042 10490.2 
92 1.83e-05 101.881 2.50778e+24 302.822 10484.8 
93 1.85e-05 101.398 2.49589e+24 304.341 10487.4 
94 1.87e-05 101.173 2.49036e+24 305.331 10498.2 
95 1.89e-05 100.855 2.48251e+24 305.746 10479.4 
96 1.91e-05 100.693 2.47854e+24 306.678 10494.5 
97 1.93e-05 100.26 2.46787e+24 307.889 10490.6 
98 1.95e-05 99.9525 2.46031e+24 308.655 10484.5 
99 1.97e-05 99.6306 2.45238e+24 309.725 10486.9 
100 1.99e-05 99.429 2.44742e+24 310.459 10490.5 
101 2.01e-05 99.2447 2.44289e+24 311.296 10499.3 
102 2.03e-05 98.6078 2.42721e+24 312.68 10478.3 
103 2.05e-05 98.7322 2.43027e+24 313.079 10504.9 
104 2.07e-05 98.1645 2.4163e+24 313.767 10467.4 
105 2.09e-05 97.7544 2.4062e+24 314.744 10456.2 
106 2.11e-05 97.6607 2.4039e+24 315.876 10483.7 
107 2.13e-05 97.3731 2.39681e+24 316.955 10488.5 
108 2.15e-05 97.2208 2.39307e+24 317.047 10475.2 
109 2.17e-05 96.9667 2.38681e+24 318.439 10493.7 
110 2.19e-05 96.3671 2.37205e+24 319.592 10466.6 
111 2.21e-05 96.1773 2.36738e+24 321.152 10496.9 
112 2.23e-05 95.9842 2.36263e+24 321.928 10501.2 
113 2.25e-05 95.5816 2.35272e+24 322.565 10477.8 
114 2.27e-05 95.1896 2.34307e+24 323.9 10478 
115 2.29e-05 95.25 2.34456e+24 324.593 10507.1 
116 2.31e-05 94.8995 2.33593e+24 325.832 10508.4 
117 2.33e-05 94.8419 2.33451e+24 325.621 10495.2 
118 2.35e-05 94.408 2.32383e+24 326.977 10490.7 
119 2.37e-05 94.0497 2.31501e+24 328.752 10507.6 
120 2.39e-05 94.0464 2.31493e+24 328.637 10503.6 
121 2.41e-05 93.5315 2.30226e+24 329.433 10471.4 
122 2.43e-05 93.4879 2.30118e+24 329.98 10483.9 
123 2.45e-05 93.3158 2.29695e+24 331.071 10499.2 
124 2.47e-05 92.9887 2.28889e+24 331.37 10471.8 
125 2.49e-05 92.9043 2.28682e+24 331.912 10479.4 
126 2.51e-05 92.6419 2.28036e+24 333.202 10490.4 
127 2.53e-05 92.1759 2.26889e+24 333.693 10453.1 
128 2.55e-05 91.9111 2.26237e+24 334.857 10459.4 
129 2.57e-05 91.5894 2.25445e+24 335.781 10451.5 
130 2.59e-05 91.5922 2.25452e+24 336.411 10471.5 
131 2.61e-05 91.4174 2.25022e+24 337.299 10479.1 
132 2.63e-05 91.2526 2.24616e+24 338.606 10500.7 
133 2.65e-05 90.8952 2.23736e+24 339.297 10480.9 
134 2.67e-05 90.7059 2.2327e+24 340.62 10499.9 
135 2.69e-05 90.6142 2.23045e+24 341.192 10506.9 
136 2.71e-05 90.2709 2.222e+24 341.887 10488.4 
137 2.73e-05 89.8979 2.21282e+24 343.089 10481.8 
138 2.75e-05 89.9061 2.21302e+24 343.238 10487.3 
139 2.77e-05 89.6806 2.20747e+24 344.389 10496.1 
140 2.79e-05 89.4383 2.2015e+24 345.34 10496.6 
141 2.81e-05 89.1485 2.19437e+24 345.869 10478.6 
142 2.83e-05 88.8594 2.18725e+24 347.441 10492.1 
143 2.85e-05 88.6707 2.18261e+24 349.038 10518 
144 2.87e-05 88.5127 2.17872e+24 348.687 10488.7 
145 2.89e-05 88.4603 2.17743e+24 348.575 10479.1 
146 2.91e-05 88.1336 2.16939e+24 349.607 10471.3 
147 2.93e-05 87.8334 2.162e+24 350.336 10457.4 
148 2.95e-05 87.6293 2.15698e+24 351.844 10478 
149 2.97e-05 87.2386 2.14736e+24 353.31 10474.7 
150 2.99e-05 86.9492 2.14023e+24 354.876 10486.3 
151 3.01e-05 86.8969 2.13895e+24 355.9 10510.2 
152 3.03e-05 86.7209 2.13461e+24 356.42 10504.2 
153 3.05e-05 86.4538 2.12804e+24 356.463 10473.1 
154 3.07e-05 86.0644 2.11845e+24 357.604 10459.4 
155 3.09e-05 86.0053 2.117e+24 358.227 10470.4 
156 3.11e-05 85.9539 2.11574e+24 358.916 10484.3 
157 3.13e-05 85.6776 2.10893e+24 359.358 10463.4 
158 3.15e-05 85.49 2.10432e+24 359.852 10454.9 
159 3.17e-05 85.3163 2.10004e+24 361.664 10486.2 
160 3.19e-05 85.4299 2.10284e+24 361.427 10493.2 
161 3.21e-05 85.3824 2.10167e+24 361.798 10498.2 
162 3.23e-05 85.0457 2.09338e+24 362.892 10488.4 
163 3.25e-05 84.787 2.08701e+24 363.757 10481.4 
164 3.27e-05 84.3535 2.07634e+24 365.08 10465.7 
165 3.29e-05 84.2145 2.07292e+24 365.483 10460 
166 3.31e-05 84.0717 2.06941e+24 366.624 10474.9 
167 3.33e-05 84.141 2.07111e+24 366.864 10490.4 
168 3.35e-05 84.1574 2.07152e+24 367.157 10500.8 
169 3.37e-05 84.2147 2.07293e+24 368.517 10546.9 
170 3.39e-05 83.89 2.06493e+24 368.438 10504 
171 3.41e-05 83.5912 2.05758e+24 369.401 10493.9 
172 3.43e-05 83.3848 2.0525e+24 370.673 10504.1 
173 3.45e-05 83.383 2.05245e+24 371.472 10526.5 
174 3.47e-05 83.0516 2.04429e+24 372.274 10507.3 
175 3.49e-05 82.669 2.03488e+24 374.342 10517 
176 3.51e-05 82.7122 2.03594e+24 374.207 10518.7 
177 3.53e-05 82.4826 2.03029e+24 374.695 10503.1 
178 3.55e-05 82.3822 2.02782e+24 375.139 10502.8 
179 3.57e-05 82.0173 2.01884e+24 376.556 10495.8 
180 3.59e-05 81.8742 2.01531e+24 376.915 10487.4 
181 3.61e-05 81.672 2.01034e+24 377.781 10485.6 
182 3.63e-05 81.4068 2.00381e+24 378.516 10471.9 
183 3.65e-05 81.3718 2.00295e+24 378.767 10474.3 
184 3.67e-05 81.365 2.00278e+24 379.636 10497.4 
185 3.69e-05 81.3181 2.00162e+24 380.42 10513 
186 3.71e-05 81.2143 1.99907e+24 381.249 10522.5 
187 3.73e-05 81.0214 1.99432e+24 381.983 10517.7 
188 3.75e-05 80.6913 1.9862e+24 382.875 10499.3 
189 3.77e-05 80.4414 1.98005e+24 383.537 10484.9 
190 3.79e-05 80.626 1.98459e+24 384.282 10529.4 
191 3.81e-05 80.1843 1.97372e+24 385.871 10515 
192 3.83e-05 79.9802 1.96869e+24 385.962 10490.7 
193 3.85e-05 79.7318 1.96258e+24 387.185 10491.3 
194 3.87e-05 79.5371 1.95779e+24 387.972 10486.9 
195 3.89e-05 79.7397 1.96277e+24 388.086 10516.7 
196 3.91e-05 79.4117 1.9547e+24 390.613 10541.7 
197 3.93e-05 79.1338 1.94786e+24 391.476 10528 
198 3.95e-05 79.1123 1.94733e+24 391.513 10526.1 
199 3.97e-05 78.9341 1.94294e+24 392.668 10533.4 
200 3.99e-05 78.9132 1.94243e+24 393.557 10554.5 
