ITEM: TIMESTEP
100000
ITEM: NUMBER OF CELLS
200
ITEM: BOX BOUNDS pp ss pp
0 0.0001
0 4e-05
0 0.0001
ITEM: CELLS id yc f_rho[1] f_rho[2] f_state[1] f_state[2] 
1 1e-07 135.082 3.76719e+24 205.397 10683 
2 3e-07 134.645 3.68721e+24 208.547 10616.6 
3 5e-07 134.518 3.67104e+24 209.787 10632.9 
4 7e-07 134.205 3.60832e+24 211.61 10542 
5 9e-07 134.126 3.59478e+24 213.147 10578.7 
6 1.1e-06 134.321 3.59569e+24 214.365 10641.9 
7 1.3e-06 133.818 3.57423e+24 215.041 10611.7 
8 1.5e-06 133.659 3.5243e+24 216.965 10557.1 
9 1.7e-06 133.504 3.50759e+24 218.045 10559.4 
10 1.9e-06 133.41 3.49796e+24 219.184 10585.4 
11 2.1e-06 133.149 3.46144e+24 221.106 10566.7 
12 2.3e-06 133.136 3.45467e+24 221.546 10567 
13 2.5e-06 132.922 3.43479e+24 222.906 10570.8 
14 2.7e-06 133.07 3.43681e+24 223.661 10612.8 
15 2.9e-06 132.844 3.41294e+24 224.293 10568.9 
16 3.1e-06 132.701 3.38862e+24 225.827 10565.3 
17 3.3e-06 132.426 3.36771e+24 227.483 10577.1 
18 3.5e-06 132.187 3.32669e+24 228.332 10487.3 
19 3.7e-06 132.362 3.34873e+24 229.176 10595.8 
20 3.9e-06 132.101 3.32226e+24 230.935 10592.7 
21 4.1e-06 131.708 3.28507e+24 232.754 10556.6 
22 4.3e-06 131.991 3.2763e+24 233.094 10543.8 
23 4.5e-06 131.67 3.25605e+24 234.776 10554.3 
24 4.7e-06 131.706 3.24353e+24 236.779 10603.4 
25 4.9e-06 131.792 3.25765e+24 235.919 10610.9 
26 5.1e-06 131.254 3.19972e+24 238.884 10553.1 
27 5.3e-06 131.198 3.19905e+24 239.461 10576.4 
28 5.5e-06 131.28 3.19344e+24 240.12 10586.9 
29 5.7e-06 130.982 3.15007e+24 242.103 10529.4 
30 5.9e-06 131.121 3.1444e+24 242.999 10549.4 
31 6.1e-06 131.234 3.13755e+24 243.925 10566.5 
32 6.3e-06 131.01 3.13148e+24 244.963 10590.9 
33 6.5e-06 130.994 3.12241e+24 245.153 10568.4 
34 6.7e-06 131.068 3.11551e+24 246.515 10603.7 
35 6.9e-06 131.162 3.12204e+24 246.811 10638.6 
36 7.1e-06 130.663 3.07592e+24 248.802 10566 
37 7.3e-06 130.509 3.05643e+24 250.707 10579.5 
38 7.5e-06 130.19 3.05042e+24 251.205 10579.7 
39 7.7e-06 130.024 3.0388e+24 252.308 10585.6 
40 7.9e-06 129.923 3.006e+24 254.182 10549.1 
41 8.1e-06 130.267 3.00849e+24 254.754 10581.7 
42 8.3e-06 130.122 2.99718e+24 254.622 10536.4 
43 8.5e-06 129.871 2.98887e+24 256.3 10576.4 
44 8.7e-06 129.959 2.99185e+24 256.167 10581.5 
45 8.9e-06 129.767 2.96591e+24 257.481 10543.6 
46 9.1e-06 129.467 2.94281e+24 260.079 10567 
47 9.3e-06 129.771 2.94133e+24 260.638 10584.3 
48 9.5e-06 129.719 2.94197e+24 260.982 10600.6 
49 9.7e-06 129.573 2.9151e+24 262.065 10547.4 
50 9.9e-06 129.514 2.91685e+24 264.18 10638.9 
51 1.01e-05 129.176 2.88393e+24 264.243 10521.4 
52 1.03e-05 129.139 2.85787e+24 265.632 10481.1 
53 1.05e-05 129.357 2.87706e+24 265.953 10564.2 
54 1.07e-05 128.971 2.85447e+24 267.723 10551 
55 1.09e-05 129.018 2.85252e+24 268.83 10587.4 
56 1.11e-05 129.166 2.86101e+24 267.977 10585.2 
57 1.13e-05 129.323 2.82403e+24 270.707 10554.8 
58 1.15e-05 128.97 2.80824e+24 271.968 10544.7 
59 1.17e-05 128.78 2.81912e+24 271.36 10561.9 
60 1.19e-05 129.071 2.80526e+24 273.572 10595.7 
61 1.21e-05 128.364 2.78262e+24 275.207 10573 
62 1.23e-05 128.619 2.76244e+24 276.858 10559.2 
63 1.25e-05 128.539 2.75018e+24 277.855 10550.2 
64 1.27e-05 128.101 2.75019e+24 278.811 10586.6 
65 1.29e-05 128.393 2.76125e+24 278.834 10630 
66 1.31e-05 128.213 2.7325e+24 280.186 10570.4 
67 1.33e-05 128.151 2.73414e+24 279.906 10566.1 
68 1.35e-05 128.429 2.73483e+24 280.988 10609.7 
69 1.37e-05 128.207 2.72133e+24 282.043 10596.9 
70 1.39e-05 128.318 2.69622e+24 283.559 10555.6 
71 1.41e-05 127.786 2.68449e+24 283.875 10521.4 
72 1.43e-05 128.006 2.6686e+24 286.636 10560.8 
73 1.45e-05 127.576 2.67423e+24 286.311 10571.1 
74 1.47e-05 127.977 2.6738e+24 286.389 10572.3 
75 1.49e-05 127.854 2.66363e+24 287.683 10579.7 
76 1.51e-05 127.98 2.66377e+24 289.777 10657.2 
77 1.53e-05 127.549 2.62708e+24 291.816 10584.4 
78 1.55e-05 127.467 2.61785e+24 293.261 10599.4 
79 1.57e-05 127.34 2.62074e+24 292.103 10569.2 
80 1.59e-05 127.724 2.61508e+24 292.433 10558.3 
81 1.61e-05 127.425 2.60312e+24 293.389 10544.3 
82 1.63e-05 127.381 2.58979e+24 294.434 10527.7 
83 1.65e-05 127.688 2.59176e+24 295.38 10569.6 
84 1.67e-05 126.94 2.56581e+24 299.219 10599.8 
85 1.69e-05 127.451 2.55348e+24 299.012 10541.5 
86 1.71e-05 126.935 2.54041e+24 299.529 10505.7 
87 1.73e-05 127.171 2.57233e+24 298.463 10599.9 
88 1.75e-05 126.932 2.5467e+24 300.3 10558.8 
89 1.77e-05 127.056 2.53908e+24 301.261 10560.9 
90 1.79e-05 126.829 2.52059e+24 303.216 10552.1 
91 1.81e-05 126.775 2.52597e+24 302.807 10560.3 
92 1.83e-05 126.727 2.50413e+24 305.084 10547.8 
93 1.85e-05 126.869 2.50326e+24 305.778 10568.1 
94 1.87e-05 126.623 2.49462e+24 307.545 10592.5 
95 1.89e-05 126.532 2.48653e+24 307.347 10551.3 
96 1.91e-05 126.508 2.47786e+24 308.074 10539.4 
97 1.93e-05 126.505 2.46739e+24 309.144 10531.3 
98 1.95e-05 126.591 2.47734e+24 310.218 10610.5 
99 1.97e-05 126.473 2.45844e+24 311.619 10577.1 
100 1.99e-05 126.453 2.44636e+24 312.85 10566.7 
101 2.01e-05 126.406 2.45438e+24 312.552 10591.2 
102 2.03e-05 126.39 2.45858e+24 313.852 10653.5 
103 2.05e-05 126.423 2.44249e+24 313.76 10580.7 
104 2.07e-05 126.171 2.42199e+24 316.06 10568.8 
105 2.09e-05 126.286 2.41719e+24 316.924 10576.7 
106 2.11e-05 126.129 2.4043e+24 316.947 10521 
107 2.13e-05 125.962 2.41054e+24 318.32 10594 
108 2.15e-05 126.064 2.40418e+24 319.079 10591.3 
109 2.17e-05 126.091 2.39652e+24 319.838 10582.7 
110 2.19e-05 126.014 2.3704e+24 321.185 10511.4 
111 2.21e-05 126.061 2.36692e+24 322.967 10554.2 
112 2.23e-05 125.801 2.35808e+24 322.778 10508.6 
113 2.25e-05 125.665 2.35931e+24 323.288 10530.7 
114 2.27e-05 125.915 2.35251e+24 324.033 10524.6 
115 2.29e-05 125.882 2.35186e+24 323.664 10509.7 
116 2.31e-05 125.569 2.34509e+24 325.717 10545.9 
117 2.33e-05 125.677 2.33074e+24 327.869 10550.6 
118 2.35e-05 125.481 2.32878e+24 327.952 10544.4 
119 2.37e-05 125.741 2.33356e+24 327.653 10556.4 
120 2.39e-05 125.276 2.31559e+24 329.19 10524.2 
121 2.41e-05 125.245 2.30971e+24 329.918 10520.8 
122 2.43e-05 125.374 2.29327e+24 330.916 10477.5 
123 2.45e-05 125.512 2.29706e+24 332.763 10553.3 
124 2.47e-05 125.225 2.28349e+24 333.587 10517 
125 2.49e-05 125.377 2.27637e+24 333.89 10493.7 
126 2.51e-05 125.341 2.2739e+24 335.891 10545.2 
127 2.53e-05 124.964 2.27449e+24 335.12 10523.7 
128 2.55e-05 124.912 2.26553e+24 336.158 10514.7 
129 2.57e-05 125.075 2.26044e+24 336.438 10499.8 
130 2.59e-05 124.894 2.25752e+24 338.237 10542.3 
131 2.61e-05 125.059 2.24501e+24 340.247 10546.2 
132 2.63e-05 125.198 2.2588e+24 339.979 10602.6 
133 2.65e-05 124.798 2.24661e+24 340.137 10550.3 
134 2.67e-05 124.992 2.23942e+24 340.888 10539.8 
135 2.69e-05 124.907 2.24019e+24 341.148 10551.4 
136 2.71e-05 125.057 2.21775e+24 343.941 10531.3 
137 2.73e-05 124.729 2.20528e+24 344.424 10486.7 
138 2.75e-05 124.797 2.20744e+24 345.581 10532.3 
139 2.77e-05 124.646 2.20004e+24 346.863 10535.9 
140 2.79e-05 124.742 2.204e+24 346.537 10544.9 
141 2.81e-05 124.473 2.17618e+24 349.594 10503.7 
142 2.83e-05 124.84 2.18627e+24 350.155 10569.3 
143 2.85e-05 124.65 2.18104e+24 351.001 10569.5 
144 2.87e-05 124.586 2.17081e+24 351.786 10543.5 
145 2.89e-05 124.672 2.18202e+24 349.997 10544 
146 2.91e-05 124.61 2.16905e+24 350.366 10492.4 
147 2.93e-05 124.651 2.16239e+24 352.562 10525.7 
148 2.95e-05 124.207 2.15201e+24 354.036 10519 
149 2.97e-05 124.655 2.16021e+24 354.732 10579.9 
150 2.99e-05 124.074 2.13521e+24 356.456 10508.2 
151 3.01e-05 124.328 2.13916e+24 356.205 10520.3 
152 3.03e-05 124.444 2.13342e+24 358.52 10560.2 
153 3.05e-05 124.233 2.14044e+24 356.914 10547.5 
154 3.07e-05 124.459 2.13878e+24 357.38 10553.1 
155 3.09e-05 124.284 2.12116e+24 359.168 10518.5 
156 3.11e-05 124.28 2.11886e+24 360.679 10551.3 
157 3.13e-05 124.031 2.12349e+24 360.404 10566.3 
158 3.15e-05 124.36 2.11823e+24 361.336 10567.4 
159 3.17e-05 124.216 2.10466e+24 362.551 10535 
160 3.19e-05 123.999 2.09825e+24 363.836 10540.2 
161 3.21e-05 124.114 2.1132e+24 363.062 10592.6 
162 3.23e-05 124.098 2.08791e+24 365.1 10524.6 
163 3.25e-05 124.123 2.0964e+24 364.855 10560.3 
164 3.27e-05 124.119 2.09246e+24 365.681 10564.4 
165 3.29e-05 123.803 2.08572e+24 366 10539.5 
166 3.31e-05 123.902 2.07983e+24 367.504 10552.9 
167 3.33e-05 123.87 2.066e+24 370.239 10560.8 
168 3.35e-05 123.517 2.059e+24 370.436 10530.6 
169 3.37e-05 123.747 2.06182e+24 370.745 10553.8 
170 3.39e-05 123.753 2.05358e+24 371.51 10533.3 
171 3.41e-05 123.829 2.05817e+24 372.467 10584.1 
172 3.43e-05 123.435 2.05491e+24 372.903 10579.7 
173 3.45e-05 123.397 2.04119e+24 373.788 10533.9 
174 3.47e-05 123.493 2.0242e+24 375.574 10496.2 
175 3.49e-05 123.748 2.02578e+24 375.317 10497.2 
176 3.51e-05 123.505 2.03016e+24 376.17 10543.8 
177 3.53e-05 123.672 2.03446e+24 377.606 10606.5 
178 3.55e-05 123.381 2.01875e+24 378.622 10552.9 
179 3.57e-05 123.493 2.0037e+24 380.422 10524 
180 3.59e-05 123.491 2.02093e+24 378.704 10566.6 
181 3.61e-05 123.204 2.00665e+24 380.866 10551.8 
182 3.63e-05 123.177 1.98648e+24 383.201 10509.8 
183 3.65e-05 122.823 2.00007e+24 383.035 10577.1 
184 3.67e-05 123.155 2.00457e+24 381.64 10562.3 
185 3.69e-05 123.283 1.98859e+24 383.689 10534.4 
186 3.71e-05 123.339 1.98672e+24 383.798 10527.4 
187 3.73e-05 123.314 1.98547e+24 385.459 10566.4 
188 3.75e-05 123.502 1.9827e+24 384.304 10520 
189 3.77e-05 123.199 1.98839e+24 385.485 10582.6 
190 3.79e-05 123.452 1.98449e+24 387.015 10603.8 
191 3.81e-05 122.94 1.96652e+24 387.095 10509.9 
192 3.83e-05 122.987 1.97021e+24 389.534 10596 
193 3.85e-05 123.196 1.9721e+24 387.617 10553.9 
194 3.87e-05 122.934 1.97465e+24 387.333 10559.8 
195 3.89e-05 123.318 1.97967e+24 387.272 10585 
196 3.91e-05 123.265 1.95269e+24 390.602 10530.6 
197 3.93e-05 122.758 1.94897e+24 392.264 10555.2 
198 3.95e-05 123.12 1.95399e+24 390.817 10543.4 
199 3.97e-05 122.901 1.9493e+24 392.125 10553.2 
200 3.99e-05 122.913 1.96098e+24 393.804 10662 
