ITEM: TIMESTEP
200000
ITEM: NUMBER OF CELLS
200
ITEM: BOX BOUNDS pp ss pp
0 0.0001
0 4e-05
0 0.0001
ITEM: CELLS id yc f_rho[1] f_rho[2] f_state[1] f_state[2] 
1 1e-07 132.13 3.74729e+24 207.111 10715.3 
2 3e-07 132.006 3.72e+24 208.215 10694 
3 5e-07 131.792 3.68704e+24 210.125 10696.4 
4 7e-07 131.656 3.66073e+24 211.61 10695.1 
5 9e-07 131.462 3.62923e+24 213.349 10690.3 
6 1.1e-06 131.341 3.59728e+24 215.12 10684.1 
7 1.3e-06 131.17 3.58057e+24 216.117 10683.8 
8 1.5e-06 130.972 3.54385e+24 218.013 10667 
9 1.7e-06 130.797 3.52415e+24 219.526 10681.3 
10 1.9e-06 130.699 3.50944e+24 220.647 10691 
11 2.1e-06 130.595 3.48005e+24 221.81 10657.4 
12 2.3e-06 130.307 3.4503e+24 223.79 10660.6 
13 2.5e-06 130.35 3.43622e+24 224.508 10651.1 
14 2.7e-06 130.129 3.4111e+24 226.34 10659.6 
15 2.9e-06 130.143 3.40359e+24 227.133 10673.4 
16 3.1e-06 129.947 3.38022e+24 228.235 10651.5 
17 3.3e-06 129.869 3.36065e+24 229.762 10660.7 
18 3.5e-06 129.724 3.34995e+24 231.111 10689.1 
19 3.7e-06 129.608 3.32031e+24 232.749 10669.7 
20 3.9e-06 129.529 3.3113e+24 233.404 10670.6 
21 4.1e-06 129.442 3.29084e+24 234.562 10657.3 
22 4.3e-06 129.209 3.2704e+24 235.723 10643.5 
23 4.5e-06 129.267 3.26238e+24 236.907 10670.8 
24 4.7e-06 129.14 3.24458e+24 237.87 10655.7 
25 4.9e-06 129.044 3.22879e+24 238.522 10632.9 
26 5.1e-06 129.025 3.21662e+24 239.964 10656.9 
27 5.3e-06 128.862 3.20423e+24 240.762 10651.1 
28 5.5e-06 128.695 3.18979e+24 241.825 10649.9 
29 5.7e-06 128.612 3.16478e+24 243.117 10622.9 
30 5.9e-06 128.575 3.15655e+24 244.301 10646.8 
31 6.1e-06 128.586 3.1498e+24 245.026 10655.6 
32 6.3e-06 128.48 3.13084e+24 246.507 10655.5 
33 6.5e-06 128.511 3.12927e+24 246.963 10669.9 
34 6.7e-06 128.278 3.11071e+24 248.663 10679.6 
35 6.9e-06 128.292 3.10472e+24 249.26 10684.6 
36 7.1e-06 128.233 3.08569e+24 250.522 10672.9 
37 7.3e-06 128.063 3.06555e+24 251.46 10642.9 
38 7.5e-06 127.97 3.05258e+24 253.016 10663.4 
39 7.7e-06 127.892 3.04124e+24 254.036 10666.6 
40 7.9e-06 127.864 3.03347e+24 255.001 10679.8 
41 8.1e-06 127.666 3.01525e+24 255.973 10656.2 
42 8.3e-06 127.697 3.00521e+24 256.817 10655.7 
43 8.5e-06 127.538 2.9848e+24 258.337 10646 
44 8.7e-06 127.501 2.98043e+24 259.565 10680.9 
45 8.9e-06 127.564 2.97135e+24 260.339 10680.1 
46 9.1e-06 127.36 2.94821e+24 261.792 10656.1 
47 9.3e-06 127.29 2.93643e+24 263.166 10669.2 
48 9.5e-06 127.256 2.93242e+24 264.008 10688.7 
49 9.7e-06 127.086 2.91466e+24 265.582 10687.3 
50 9.9e-06 127.097 2.90587e+24 266.41 10688.3 
51 1.01e-05 126.926 2.88858e+24 267.438 10665.7 
52 1.03e-05 126.859 2.87083e+24 268.686 10649.7 
53 1.05e-05 126.789 2.86298e+24 269.741 10662.2 
54 1.07e-05 126.738 2.85302e+24 270.577 10658.1 
55 1.09e-05 126.624 2.84473e+24 271.408 10659.7 
56 1.11e-05 126.784 2.83831e+24 272.496 10678.3 
57 1.13e-05 126.546 2.81913e+24 273.74 10654.6 
58 1.15e-05 126.573 2.82056e+24 273.59 10654.2 
59 1.17e-05 126.519 2.81e+24 274.772 10660.1 
60 1.19e-05 126.349 2.78417e+24 276.318 10621.6 
61 1.21e-05 126.343 2.78001e+24 277.046 10633.6 
62 1.23e-05 126.326 2.77249e+24 278.732 10669.4 
63 1.25e-05 126.214 2.75441e+24 279.887 10643.7 
64 1.27e-05 126.251 2.75863e+24 280.623 10688.1 
65 1.29e-05 126.151 2.74163e+24 281.48 10654.7 
66 1.31e-05 126.117 2.73634e+24 281.725 10643.4 
67 1.33e-05 125.923 2.72196e+24 283.381 10649.6 
68 1.35e-05 125.934 2.71798e+24 284.052 10659.3 
69 1.37e-05 125.935 2.70988e+24 284.355 10638.8 
70 1.39e-05 125.84 2.69018e+24 286.151 10628.2 
71 1.41e-05 125.706 2.6798e+24 287.693 10644.2 
72 1.43e-05 125.65 2.67392e+24 288.461 10649.3 
73 1.45e-05 125.758 2.67297e+24 289.663 10689.8 
74 1.47e-05 125.631 2.66277e+24 289.999 10661.4 
75 1.49e-05 125.525 2.64982e+24 291.352 10659 
76 1.51e-05 125.414 2.63968e+24 292.24 10650.6 
77 1.53e-05 125.442 2.63185e+24 293.793 10675.4 
78 1.55e-05 125.424 2.62511e+24 294.145 10660.8 
79 1.57e-05 125.394 2.61277e+24 295.545 10661.3 
80 1.59e-05 125.259 2.60495e+24 296.188 10652.5 
81 1.61e-05 125.239 2.59843e+24 297.287 10665.3 
82 1.63e-05 125.181 2.59234e+24 298.027 10666.7 
83 1.65e-05 125.101 2.57966e+24 299.28 10659.2 
84 1.67e-05 125.01 2.57096e+24 300.653 10671.9 
85 1.69e-05 125.163 2.56909e+24 301.017 10677.1 
86 1.71e-05 124.97 2.5605e+24 301.994 10676 
87 1.73e-05 124.934 2.54838e+24 302.741 10651.7 
88 1.75e-05 124.751 2.52986e+24 304.566 10638 
89 1.77e-05 124.774 2.52878e+24 305.337 10660.4 
90 1.79e-05 124.723 2.51508e+24 306.698 10649.9 
91 1.81e-05 124.621 2.50629e+24 307.437 10638.3 
92 1.83e-05 124.513 2.49853e+24 308.865 10654.6 
93 1.85e-05 124.647 2.5005e+24 308.968 10666.5 
94 1.87e-05 124.616 2.49397e+24 309.266 10649 
95 1.89e-05 124.449 2.48036e+24 310.981 10649.6 
96 1.91e-05 124.36 2.46863e+24 312.213 10641.2 
97 1.93e-05 124.456 2.47167e+24 313.194 10687.8 
98 1.95e-05 124.41 2.45874e+24 314.153 10664.4 
99 1.97e-05 124.353 2.45538e+24 314.649 10666.7 
100 1.99e-05 124.236 2.4451e+24 315.943 10665.7 
101 2.01e-05 124.213 2.43628e+24 316.673 10651.7 
102 2.03e-05 124.202 2.43311e+24 317.011 10649.3 
103 2.05e-05 124.228 2.42601e+24 318.243 10659.4 
104 2.07e-05 124.118 2.41231e+24 319.972 10656.9 
105 2.09e-05 123.979 2.40475e+24 320.586 10643.8 
106 2.11e-05 123.995 2.39861e+24 321.081 10633 
107 2.13e-05 123.93 2.39724e+24 321.565 10643 
108 2.15e-05 123.852 2.38392e+24 323.088 10634 
109 2.17e-05 123.793 2.37346e+24 324.521 10634.3 
110 2.19e-05 123.758 2.36655e+24 324.783 10611.9 
111 2.21e-05 123.876 2.37289e+24 325.399 10660.5 
112 2.23e-05 123.864 2.36671e+24 326.784 10678 
113 2.25e-05 123.785 2.3603e+24 326.96 10654.8 
114 2.27e-05 123.763 2.35572e+24 327.586 10654.4 
115 2.29e-05 123.582 2.34374e+24 329.081 10648.7 
116 2.31e-05 123.518 2.33714e+24 330.463 10663.3 
117 2.33e-05 123.588 2.33006e+24 330.928 10645.9 
118 2.35e-05 123.626 2.32583e+24 331.757 10653.2 
119 2.37e-05 123.531 2.32781e+24 332.38 10682.3 
120 2.39e-05 123.477 2.31217e+24 333.528 10647.2 
121 2.41e-05 123.432 2.30776e+24 334.434 10655.8 
122 2.43e-05 123.418 2.30465e+24 334.896 10656.1 
123 2.45e-05 123.312 2.29157e+24 335.791 10623.9 
124 2.47e-05 123.222 2.28937e+24 336.468 10635.1 
125 2.49e-05 123.305 2.28203e+24 337.299 10627.2 
126 2.51e-05 123.192 2.27408e+24 338.385 10624.3 
127 2.53e-05 123.189 2.27141e+24 339.204 10637.5 
128 2.55e-05 123.19 2.26139e+24 340.91 10643.9 
129 2.57e-05 123.146 2.25774e+24 341.33 10639.8 
130 2.59e-05 123.076 2.25399e+24 342.456 10657.1 
131 2.61e-05 123.018 2.24507e+24 343.218 10638.6 
132 2.63e-05 123.068 2.24432e+24 343.676 10649.2 
133 2.65e-05 123.005 2.2355e+24 344.383 10629.2 
134 2.67e-05 123.043 2.23752e+24 344.947 10656.2 
135 2.69e-05 122.89 2.22614e+24 346.21 10640.8 
136 2.71e-05 122.924 2.22025e+24 347.524 10653 
137 2.73e-05 122.936 2.21887e+24 348.533 10677.2 
138 2.75e-05 122.819 2.21125e+24 348.797 10648.6 
139 2.77e-05 122.799 2.20385e+24 349.829 10644.4 
140 2.79e-05 122.716 2.1941e+24 350.657 10622.4 
141 2.81e-05 122.682 2.19129e+24 351.731 10641.3 
142 2.83e-05 122.743 2.19112e+24 352.392 10660.4 
143 2.85e-05 122.694 2.18747e+24 352.92 10658.6 
144 2.87e-05 122.653 2.18244e+24 353.84 10661.9 
145 2.89e-05 122.588 2.17623e+24 354.536 10652.5 
146 2.91e-05 122.491 2.17062e+24 355.032 10639.8 
147 2.93e-05 122.604 2.16696e+24 355.964 10649.8 
148 2.95e-05 122.479 2.15487e+24 356.677 10611.6 
149 2.97e-05 122.468 2.15493e+24 358.125 10654.9 
150 2.99e-05 122.435 2.15066e+24 358.385 10641.6 
151 3.01e-05 122.391 2.14728e+24 359.081 10645.4 
152 3.03e-05 122.407 2.14484e+24 359.188 10636.5 
153 3.05e-05 122.349 2.13444e+24 361.456 10651.8 
154 3.07e-05 122.31 2.12615e+24 362.647 10645.4 
155 3.09e-05 122.311 2.12229e+24 362.702 10627.6 
156 3.11e-05 122.275 2.12045e+24 363.273 10635.1 
157 3.13e-05 122.265 2.11822e+24 363.682 10635.9 
158 3.15e-05 122.248 2.1172e+24 364.392 10651.6 
159 3.17e-05 122.23 2.10787e+24 364.742 10614.8 
160 3.19e-05 122.151 2.10255e+24 365.887 10621.3 
161 3.21e-05 122.14 2.09958e+24 367.106 10641.6 
162 3.23e-05 122.092 2.09223e+24 368.131 10633.9 
163 3.25e-05 122.055 2.08369e+24 368.91 10613 
164 3.27e-05 122.035 2.08739e+24 368.877 10630.9 
165 3.29e-05 121.974 2.07846e+24 370.135 10621.5 
166 3.31e-05 122.044 2.07836e+24 371.865 10670.6 
167 3.33e-05 121.962 2.0705e+24 373.076 10664.9 
168 3.35e-05 121.944 2.06717e+24 373.33 10655 
169 3.37e-05 121.88 2.06163e+24 373.75 10638.4 
170 3.39e-05 121.91 2.06109e+24 373.918 10640.4 
171 3.41e-05 121.779 2.05102e+24 375.932 10645.4 
172 3.43e-05 121.833 2.05088e+24 375.805 10641.1 
173 3.45e-05 121.79 2.04648e+24 376.961 10650.9 
174 3.47e-05 121.808 2.04607e+24 377.361 10660.1 
175 3.49e-05 121.707 2.03682e+24 377.622 10619.2 
176 3.51e-05 121.834 2.04119e+24 378.636 10670.6 
177 3.53e-05 121.763 2.03266e+24 379.851 10660.1 
178 3.55e-05 121.752 2.03341e+24 379.998 10668.2 
179 3.57e-05 121.67 2.02402e+24 380.9 10644.1 
180 3.59e-05 121.585 2.02102e+24 381.083 10633.4 
181 3.61e-05 121.66 2.01607e+24 381.917 10630.6 
182 3.63e-05 121.588 2.01054e+24 382.961 10630.4 
183 3.65e-05 121.567 2.00421e+24 383.7 10617.4 
184 3.67e-05 121.565 2.0042e+24 384.869 10649.7 
185 3.69e-05 121.38 1.99535e+24 385.686 10625.2 
186 3.71e-05 121.579 2.00051e+24 385.568 10649.4 
187 3.73e-05 121.45 1.99376e+24 386.691 10644.4 
188 3.75e-05 121.462 1.99095e+24 386.987 10637.5 
189 3.77e-05 121.378 1.98555e+24 387.864 10632.7 
190 3.79e-05 121.373 1.98203e+24 388.587 10633.6 
191 3.81e-05 121.411 1.97955e+24 388.916 10629.3 
192 3.83e-05 121.435 1.98078e+24 389.122 10641.5 
193 3.85e-05 121.33 1.9774e+24 389.882 10644.1 
194 3.87e-05 121.266 1.97207e+24 390.744 10638.9 
195 3.89e-05 121.271 1.97035e+24 390.895 10633.7 
196 3.91e-05 121.365 1.97158e+24 391.527 10657.6 
197 3.93e-05 121.279 1.96665e+24 392.104 10646.6 
198 3.95e-05 121.335 1.96514e+24 392.274 10643.1 
199 3.97e-05 121.185 1.95612e+24 393.431 10625.5 
200 3.99e-05 120.984 1.95872e+24 394.373 10665 
