ITEM: TIMESTEP
2000
ITEM: NUMBER OF CELLS
200
ITEM: BOX BOUNDS pp ss pp
0 0.0001
0 4e-05
0 0.0001
ITEM: CELLS id yc f_rho[1] f_rho[2] f_state[1] f_state[2] 
1 1e-07 153.044 3.59541e+24 204.498 10151.3 
2 3e-07 154.444 3.72589e+24 207.551 10676.8 
3 5e-07 154.042 3.6046e+24 205.15 10209.7 
4 7e-07 153.152 3.58504e+24 207.421 10266.7 
5 9e-07 153.288 3.52283e+24 211.641 10293.8 
6 1.1e-06 153.404 3.58278e+24 207.448 10261.5 
7 1.3e-06 151.606 3.40378e+24 212.404 9981.77 
8 1.5e-06 153.598 3.52337e+24 210.057 10218.3 
9 1.7e-06 152.688 3.47417e+24 211.822 10160.3 
10 1.9e-06 152.782 3.50984e+24 212.159 10280.9 
11 2.1e-06 153.176 3.54539e+24 210.27 10292.6 
12 2.3e-06 152.4 3.40175e+24 216.597 10172.7 
13 2.5e-06 151.666 3.35023e+24 219.275 10142.5 
14 2.7e-06 151.736 3.3595e+24 216.153 10025.8 
15 2.9e-06 152.46 3.38318e+24 218.568 10209.3 
16 3.1e-06 151.466 3.31885e+24 221.989 10171.9 
17 3.3e-06 152.582 3.45437e+24 215.737 10289.1 
18 3.5e-06 153.58 3.51673e+24 214.953 10436.7 
19 3.7e-06 151.26 3.33613e+24 219.471 10108.9 
20 3.9e-06 152.396 3.39839e+24 224.436 10530.5 
21 4.1e-06 151.962 3.35705e+24 222.993 10335.5 
22 4.3e-06 152.608 3.36764e+24 225.187 10470.2 
23 4.5e-06 151.692 3.32296e+24 223.3 10244.6 
24 4.7e-06 151.59 3.30385e+24 224.358 10234 
25 4.9e-06 151.492 3.32258e+24 223.709 10262.3 
26 5.1e-06 151.898 3.35021e+24 223.116 10320.2 
27 5.3e-06 151.838 3.3194e+24 225.977 10356.4 
28 5.5e-06 150.802 3.22618e+24 228.371 10172.1 
29 5.7e-06 150.98 3.24145e+24 230.423 10312.1 
30 5.9e-06 151.316 3.24804e+24 229.625 10297.3 
31 6.1e-06 151.058 3.23414e+24 234.901 10488.8 
32 6.3e-06 150.212 3.15262e+24 231.316 10068.4 
33 6.5e-06 150.682 3.18237e+24 231.672 10179.1 
34 6.7e-06 150.666 3.18966e+24 235.063 10351.7 
35 6.9e-06 150.65 3.14713e+24 241.786 10505.8 
36 7.1e-06 148.798 2.95154e+24 245.919 10021.3 
37 7.3e-06 150.072 2.98296e+24 244.979 10089.3 
38 7.5e-06 148.956 3.01593e+24 237.652 9895.68 
39 7.7e-06 149.98 3.06499e+24 238.054 10073.7 
40 7.9e-06 149.474 3.02988e+24 241.895 10119 
41 8.1e-06 150.19 3.05827e+24 242.641 10245.3 
42 8.3e-06 149.048 2.93071e+24 250.241 10125.5 
43 8.5e-06 148.994 2.99032e+24 244.204 10082.2 
44 8.7e-06 148.82 2.96937e+24 245.938 10082.6 
45 8.9e-06 149.258 3.0116e+24 244.667 10173.2 
46 9.1e-06 150.558 3.0997e+24 245.706 10515.2 
47 9.3e-06 148.706 2.93884e+24 247.984 10062 
48 9.5e-06 149.52 2.9871e+24 244.897 10099.9 
49 9.7e-06 149.064 2.9385e+24 249.888 10138.1 
50 9.9e-06 148.092 2.8507e+24 251.966 9916.91 
51 1.01e-05 149.342 2.96286e+24 246.004 10063.2 
52 1.03e-05 148.43 2.90489e+24 251.791 10098.4 
53 1.05e-05 149.522 2.97226e+24 247.267 10147 
54 1.07e-05 149.278 2.91948e+24 253.926 10235.2 
55 1.09e-05 149.604 2.9822e+24 250.878 10329.6 
56 1.11e-05 149.014 2.93279e+24 252.729 10233.4 
57 1.13e-05 148.566 2.88387e+24 254.416 10129.9 
58 1.15e-05 149.706 2.9776e+24 254.675 10469.7 
59 1.17e-05 148.858 2.86226e+24 257.177 10163.1 
60 1.19e-05 148.644 2.86755e+24 260.199 10301.5 
61 1.21e-05 148.668 2.83728e+24 259.547 10167.2 
62 1.23e-05 147.46 2.74787e+24 261.811 9932.69 
63 1.25e-05 148.196 2.82664e+24 254.872 9946.63 
64 1.27e-05 148.58 2.80975e+24 260.734 10114.6 
65 1.29e-05 147.554 2.732e+24 267.146 10076.6 
66 1.31e-05 147.886 2.71605e+24 265.694 9963.26 
67 1.33e-05 147.638 2.75052e+24 268.247 10186.7 
68 1.35e-05 148.236 2.77659e+24 263.311 10094 
69 1.37e-05 147.002 2.70141e+24 271.575 10129 
70 1.39e-05 148.184 2.76551e+24 266.658 10181.5 
71 1.41e-05 147.36 2.73653e+24 268.695 10151.8 
72 1.43e-05 147.042 2.6935e+24 270.177 10047.3 
73 1.45e-05 147.352 2.68784e+24 277.77 10307.9 
74 1.47e-05 147.176 2.66903e+24 275.395 10148.3 
75 1.49e-05 146.422 2.59488e+24 276.777 9915.84 
76 1.51e-05 147.304 2.65776e+24 280.384 10288.5 
77 1.53e-05 147.232 2.62161e+24 280.326 10146.5 
78 1.55e-05 147.658 2.62737e+24 279.42 10135.9 
79 1.57e-05 146.924 2.5772e+24 284.109 10109.2 
80 1.59e-05 147.378 2.6208e+24 284.263 10285.8 
81 1.61e-05 146.702 2.58768e+24 286.303 10228.7 
82 1.63e-05 145.81 2.5404e+24 286.636 10053.5 
83 1.65e-05 147.028 2.59613e+24 287.854 10317.7 
84 1.67e-05 145.876 2.52191e+24 286.261 9967.23 
85 1.69e-05 146.616 2.56914e+24 284.245 10082.4 
86 1.71e-05 145.72 2.49355e+24 292.686 10076.4 
87 1.73e-05 146.426 2.55351e+24 292.153 10299.9 
88 1.75e-05 146.814 2.53327e+24 292.782 10240.2 
89 1.77e-05 144.946 2.41702e+24 291.975 9743.38 
90 1.79e-05 146.522 2.49425e+24 291.679 10044.5 
91 1.81e-05 146.674 2.5977e+24 290.461 10417.4 
92 1.83e-05 146.842 2.55927e+24 289.965 10245.8 
93 1.85e-05 147.182 2.5611e+24 289.886 10250.3 
94 1.87e-05 146.558 2.52118e+24 296.102 10306.9 
95 1.89e-05 146.174 2.49459e+24 292.901 10088 
96 1.91e-05 145.55 2.39987e+24 300.81 9966.96 
97 1.93e-05 146.28 2.51365e+24 294.649 10225.7 
98 1.95e-05 145.814 2.48617e+24 294.52 10109.5 
99 1.97e-05 146.264 2.48745e+24 294.36 10109.2 
100 1.99e-05 146.39 2.51663e+24 296.087 10287.8 
101 2.01e-05 146.432 2.47955e+24 297.292 10177.5 
102 2.03e-05 145.652 2.4325e+24 302.28 10151.8 
103 2.05e-05 145.6 2.45044e+24 305.109 10322.4 
104 2.07e-05 146.144 2.43662e+24 300.127 10096.6 
105 2.09e-05 145.798 2.44119e+24 296.832 10004.5 
106 2.11e-05 145.798 2.40683e+24 299.78 9961.64 
107 2.13e-05 145.738 2.45155e+24 303.98 10288.9 
108 2.15e-05 145.762 2.42796e+24 302.72 10147.6 
109 2.17e-05 146.27 2.41731e+24 305.076 10181.8 
110 2.19e-05 145.866 2.41309e+24 308.368 10273.7 
111 2.21e-05 144.932 2.34642e+24 313.395 10152.7 
112 2.23e-05 145.812 2.41487e+24 310.595 10355.5 
113 2.25e-05 145.494 2.44542e+24 308.452 10414.1 
114 2.27e-05 145.976 2.45193e+24 306.245 10367.2 
115 2.29e-05 145.182 2.37869e+24 313.234 10287 
116 2.31e-05 145.278 2.37224e+24 314.21 10291.1 
117 2.33e-05 144.704 2.38141e+24 314.882 10353 
118 2.35e-05 145.364 2.3898e+24 312.034 10295.5 
119 2.37e-05 146.132 2.40566e+24 312.039 10364 
120 2.39e-05 145.808 2.43163e+24 311.885 10470.7 
121 2.41e-05 144.818 2.35302e+24 317.816 10324.9 
122 2.43e-05 145.066 2.31723e+24 317.749 10165.7 
123 2.45e-05 144.604 2.32626e+24 315.989 10148.8 
124 2.47e-05 145.866 2.40196e+24 314.138 10417.6 
125 2.49e-05 145.698 2.37823e+24 318.644 10462.7 
126 2.51e-05 144.476 2.31246e+24 322.023 10281.2 
127 2.53e-05 145.69 2.37209e+24 323.956 10609.7 
128 2.55e-05 145.522 2.35386e+24 321.721 10455.5 
129 2.57e-05 144.988 2.31379e+24 319.248 10198.5 
130 2.59e-05 144.426 2.2618e+24 318.519 9946.57 
131 2.61e-05 144.468 2.25169e+24 326.406 10147.3 
132 2.63e-05 144.758 2.26264e+24 320.432 10010 
133 2.65e-05 144.292 2.25096e+24 326.413 10144.2 
134 2.67e-05 144.454 2.25467e+24 329.934 10270.5 
135 2.69e-05 144.858 2.25884e+24 328.63 10248.9 
136 2.71e-05 143.77 2.19422e+24 330.858 10023.1 
137 2.73e-05 144.79 2.22164e+24 338.785 10391.6 
138 2.75e-05 143.542 2.16768e+24 341.269 10213.5 
139 2.77e-05 144.41 2.19532e+24 338.257 10252.4 
140 2.79e-05 144.268 2.22532e+24 336.357 10334.2 
141 2.81e-05 143.952 2.18159e+24 334.467 10074.2 
142 2.83e-05 144.318 2.18244e+24 334.321 10073.7 
143 2.85e-05 143.762 2.14376e+24 340.948 10091.3 
144 2.87e-05 143.988 2.15033e+24 345.946 10270.6 
145 2.89e-05 143.476 2.17612e+24 340.034 10216.1 
146 2.91e-05 143.838 2.14469e+24 340.515 10082.8 
147 2.93e-05 143.74 2.1729e+24 335.342 10060.3 
148 2.95e-05 143.948 2.149e+24 342.247 10154.5 
149 2.97e-05 143.694 2.15448e+24 345.351 10272.8 
150 2.99e-05 143.984 2.12998e+24 341.65 10047.1 
151 3.01e-05 143.4 2.12145e+24 346.768 10156.7 
152 3.03e-05 143.87 2.1161e+24 350.813 10249.3 
153 3.05e-05 144.032 2.10389e+24 352.438 10237.4 
154 3.07e-05 144.004 2.13778e+24 348.368 10282.2 
155 3.09e-05 143.204 2.09572e+24 347.095 10043 
156 3.11e-05 143.088 2.06451e+24 358.155 10208.7 
157 3.13e-05 143.766 2.14024e+24 347.324 10263.2 
158 3.15e-05 143.49 2.10171e+24 349.849 10151.6 
159 3.17e-05 143.278 2.06858e+24 347.15 9914.55 
160 3.19e-05 143.798 2.11498e+24 349.419 10203.2 
161 3.21e-05 143.064 2.08085e+24 350.619 10073 
162 3.23e-05 143.886 2.10675e+24 353.483 10281.7 
163 3.25e-05 143.352 2.07138e+24 354.793 10146.6 
164 3.27e-05 142.974 2.0426e+24 357.302 10076.3 
165 3.29e-05 142.906 2.02684e+24 367.427 10281.9 
166 3.31e-05 143.032 2.02973e+24 360.633 10106.2 
167 3.33e-05 143.982 2.08684e+24 365.872 10541.5 
168 3.35e-05 142.784 2.01719e+24 372.04 10361.4 
169 3.37e-05 142.662 1.98992e+24 363.033 9973.88 
170 3.39e-05 142.85 1.9761e+24 379.141 10344.1 
171 3.41e-05 142.398 1.93567e+24 376.372 10058.4 
172 3.43e-05 142.62 1.93146e+24 375.748 10019.9 
173 3.45e-05 143.474 2.01123e+24 375.371 10423.3 
174 3.47e-05 141.594 1.92821e+24 374.215 9962.29 
175 3.49e-05 142.692 1.9879e+24 374.165 10269.3 
176 3.51e-05 142.564 1.94698e+24 375.473 10093.1 
177 3.53e-05 142.348 1.9384e+24 373.785 10003.4 
178 3.55e-05 141.824 1.89992e+24 375.05 9838.03 
179 3.57e-05 142.268 1.95556e+24 376.403 10162.6 
180 3.59e-05 141.656 1.93063e+24 378.346 10084.9 
181 3.61e-05 142.52 1.97833e+24 368.13 10055 
182 3.63e-05 143.064 1.97079e+24 378.684 10303.9 
183 3.65e-05 142.206 1.91299e+24 373.807 9872.89 
184 3.67e-05 141.674 1.87571e+24 382.962 9917.56 
185 3.69e-05 142.644 1.93413e+24 385.176 10285.6 
186 3.71e-05 142.322 1.93875e+24 380.232 10177.8 
187 3.73e-05 142.034 1.91756e+24 381.891 10110.5 
188 3.75e-05 141.334 1.87486e+24 381.253 9868.82 
189 3.77e-05 141.338 1.86928e+24 391.365 10100.4 
190 3.79e-05 141.688 1.84719e+24 390.084 9948.4 
191 3.81e-05 141.766 1.85492e+24 393.119 10067.8 
192 3.83e-05 141.436 1.85955e+24 383.244 9839.34 
193 3.85e-05 142.516 1.90329e+24 386.135 10146.8 
194 3.87e-05 142.13 1.91013e+24 384.258 10133.7 
195 3.89e-05 141.686 1.842e+24 395.859 10067.3 
196 3.91e-05 141.498 1.85969e+24 394.065 10117.9 
197 3.93e-05 142.29 1.91869e+24 390.582 10346.7 
198 3.95e-05 141.16 1.88184e+24 388.939 10105.3 
199 3.97e-05 142.436 1.90318e+24 385.637 10133.1 
200 3.99e-05 141.88 1.85672e+24 390.909 10020.9 
