ITEM: TIMESTEP
100000
ITEM: NUMBER OF CELLS
200
ITEM: BOX BOUNDS pp ss pp
0 0.0001
0 4e-05
0 0.0001
ITEM: CELLS id yc f_rho[1] f_rho[2] f_state[1] f_state[2] 
1 1e-07 143.385 3.72789e+24 208.173 10714.5 
2 3e-07 143.351 3.70181e+24 209.359 10700.1 
3 5e-07 143.255 3.67884e+24 210.873 10710.6 
4 7e-07 143.011 3.64452e+24 212.81 10708.2 
5 9e-07 142.877 3.61506e+24 214.341 10698 
6 1.1e-06 142.521 3.57714e+24 215.916 10663.6 
7 1.3e-06 142.562 3.55929e+24 217.357 10681.2 
8 1.5e-06 142.433 3.53485e+24 218.691 10672.9 
9 1.7e-06 142.129 3.5002e+24 219.8 10621.9 
10 1.9e-06 142.194 3.50429e+24 220.074 10647.6 
11 2.1e-06 142.137 3.48022e+24 222.109 10672.2 
12 2.3e-06 141.916 3.45357e+24 223.79 10670.7 
13 2.5e-06 141.765 3.42763e+24 224.73 10635 
14 2.7e-06 141.666 3.41281e+24 226.325 10664.2 
15 2.9e-06 141.642 3.39086e+24 227.548 10652.8 
16 3.1e-06 141.297 3.36628e+24 229.845 10682.4 
17 3.3e-06 141.183 3.3475e+24 230.711 10662.8 
18 3.5e-06 141.368 3.34428e+24 231.159 10673.3 
19 3.7e-06 141.298 3.32598e+24 232.4 10671.8 
20 3.9e-06 141.003 3.31641e+24 232.487 10645.1 
21 4.1e-06 140.822 3.29003e+24 234.5 10651.8 
22 4.3e-06 140.972 3.28673e+24 235.969 10707.8 
23 4.5e-06 140.878 3.27063e+24 237.024 10703 
24 4.7e-06 140.625 3.23502e+24 238.503 10652.6 
25 4.9e-06 140.491 3.22704e+24 238.866 10642.5 
26 5.1e-06 140.291 3.20684e+24 240.442 10645.6 
27 5.3e-06 140.318 3.18521e+24 241.111 10603.3 
28 5.5e-06 140.134 3.17301e+24 242.706 10632.5 
29 5.7e-06 140.052 3.15196e+24 243.875 10612.8 
30 5.9e-06 140.132 3.14763e+24 244.407 10621.4 
31 6.1e-06 140.116 3.13667e+24 246.255 10664.4 
32 6.3e-06 139.871 3.12359e+24 246.88 10646.9 
33 6.5e-06 139.706 3.10679e+24 248.458 10657.3 
34 6.7e-06 139.713 3.09509e+24 249.732 10671.6 
35 6.9e-06 139.739 3.08949e+24 250.185 10671.6 
36 7.1e-06 139.578 3.07912e+24 249.818 10620.2 
37 7.3e-06 139.524 3.06188e+24 251.936 10650.3 
38 7.5e-06 139.413 3.04227e+24 253.565 10650.5 
39 7.7e-06 139.571 3.03627e+24 254.474 10667.6 
40 7.9e-06 139.31 3.02732e+24 254.681 10644.8 
41 8.1e-06 139.244 3.02167e+24 256.137 10685.7 
42 8.3e-06 139.137 2.9967e+24 257.476 10652.8 
43 8.5e-06 139.072 2.97668e+24 258.743 10633.7 
44 8.7e-06 138.843 2.96426e+24 260.134 10646.3 
45 8.9e-06 139.002 2.96397e+24 260.537 10661.7 
46 9.1e-06 139.014 2.94915e+24 261.783 10659.1 
47 9.3e-06 138.834 2.93444e+24 263.195 10663.2 
48 9.5e-06 138.673 2.92734e+24 263.086 10632.9 
49 9.7e-06 138.697 2.909e+24 265.626 10668.4 
50 9.9e-06 138.623 2.89853e+24 266.048 10646.8 
51 1.01e-05 138.594 2.88543e+24 267.51 10657 
52 1.03e-05 138.449 2.87344e+24 268.615 10656.5 
53 1.05e-05 138.389 2.86672e+24 269.823 10679.4 
54 1.07e-05 138.303 2.85255e+24 270.629 10658.4 
55 1.09e-05 138.111 2.84081e+24 271.421 10645.6 
56 1.11e-05 138.243 2.83659e+24 272.585 10675.3 
57 1.13e-05 138.153 2.82217e+24 273.481 10656 
58 1.15e-05 138.13 2.81713e+24 274.676 10683.4 
59 1.17e-05 138.145 2.81029e+24 275.131 10675.1 
60 1.19e-05 138.169 2.79555e+24 276.206 10660.7 
61 1.21e-05 137.904 2.79027e+24 277.211 10679.3 
62 1.23e-05 137.813 2.76902e+24 278.306 10639.8 
63 1.25e-05 137.843 2.75024e+24 279.872 10627 
64 1.27e-05 137.589 2.75298e+24 280.126 10647.3 
65 1.29e-05 137.75 2.75115e+24 281.812 10704.3 
66 1.31e-05 137.652 2.73425e+24 282.718 10672.7 
67 1.33e-05 137.72 2.7315e+24 284.319 10722.3 
68 1.35e-05 137.538 2.72843e+24 283.594 10683 
69 1.37e-05 137.624 2.71617e+24 283.851 10644.6 
70 1.39e-05 137.231 2.69699e+24 285.799 10642 
71 1.41e-05 137.209 2.68655e+24 287.829 10676.1 
72 1.43e-05 137.054 2.68082e+24 288.432 10675.6 
73 1.45e-05 137.28 2.68282e+24 288.515 10686.7 
74 1.47e-05 137.108 2.66169e+24 289.684 10645.5 
75 1.49e-05 137.216 2.65824e+24 291.031 10681.1 
76 1.51e-05 137.292 2.65291e+24 292.316 10706.8 
77 1.53e-05 137.216 2.63669e+24 292.842 10660.5 
78 1.55e-05 136.9 2.63103e+24 292.87 10638.6 
79 1.57e-05 136.86 2.62055e+24 293.941 10635 
80 1.59e-05 137.019 2.61585e+24 295.442 10670.1 
81 1.61e-05 136.718 2.60555e+24 296.828 10677.9 
82 1.63e-05 136.899 2.59953e+24 298.003 10695.4 
83 1.65e-05 136.847 2.59316e+24 298.406 10683.7 
84 1.67e-05 136.667 2.57719e+24 299.243 10647.7 
85 1.69e-05 136.534 2.56759e+24 300.901 10666.7 
86 1.71e-05 136.37 2.56413e+24 301.432 10671.2 
87 1.73e-05 136.634 2.55507e+24 302.438 10669 
88 1.75e-05 136.416 2.54307e+24 303.889 10669.8 
89 1.77e-05 136.444 2.5435e+24 303.924 10672.8 
90 1.79e-05 136.271 2.53109e+24 305.674 10681.9 
91 1.81e-05 136.506 2.53518e+24 305.055 10677.5 
92 1.83e-05 136.31 2.51325e+24 306.505 10635.4 
93 1.85e-05 136.056 2.50235e+24 307.943 10639 
94 1.87e-05 136.136 2.49688e+24 308.542 10636.4 
95 1.89e-05 136.113 2.49444e+24 309.557 10661 
96 1.91e-05 135.982 2.48686e+24 309.775 10636 
97 1.93e-05 136.039 2.47286e+24 310.948 10616.2 
98 1.95e-05 135.911 2.46092e+24 312.171 10606.5 
99 1.97e-05 135.979 2.46384e+24 313.222 10654.8 
100 1.99e-05 135.977 2.45532e+24 314.384 10657.4 
101 2.01e-05 136.089 2.45552e+24 315.176 10685.1 
102 2.03e-05 135.763 2.43773e+24 316.53 10653.3 
103 2.05e-05 135.781 2.43273e+24 317.787 10673.7 
104 2.07e-05 135.478 2.41121e+24 319.156 10624.8 
105 2.09e-05 135.804 2.41623e+24 319.034 10642.8 
106 2.11e-05 135.552 2.40559e+24 319.889 10624.4 
107 2.13e-05 135.596 2.39607e+24 321.15 10624.1 
108 2.15e-05 135.645 2.39419e+24 321.506 10627.5 
109 2.17e-05 135.577 2.39324e+24 322.676 10661.9 
110 2.19e-05 135.462 2.38778e+24 323.531 10665.8 
111 2.21e-05 135.465 2.38165e+24 323.884 10650.1 
112 2.23e-05 135.355 2.37742e+24 325.044 10669.2 
113 2.25e-05 135.408 2.3735e+24 325.163 10655.5 
114 2.27e-05 135.409 2.37155e+24 326.73 10698.1 
115 2.29e-05 135.327 2.36163e+24 327.295 10671.7 
116 2.31e-05 135.248 2.34865e+24 328.565 10654.2 
117 2.33e-05 135.046 2.33775e+24 330.642 10671.9 
118 2.35e-05 135.132 2.33123e+24 331.282 10662.7 
119 2.37e-05 135.249 2.33193e+24 330.771 10649.4 
120 2.39e-05 135.166 2.33105e+24 331.834 10679.6 
121 2.41e-05 135.047 2.31595e+24 333.031 10648.7 
122 2.43e-05 134.935 2.31106e+24 333.384 10637.5 
123 2.45e-05 134.899 2.30494e+24 335.003 10660.9 
124 2.47e-05 134.92 2.29543e+24 336.735 10671.8 
125 2.49e-05 134.805 2.27993e+24 338.089 10642.3 
126 2.51e-05 134.931 2.27921e+24 338.646 10656.5 
127 2.53e-05 134.742 2.2702e+24 339.814 10650.9 
128 2.55e-05 134.721 2.27018e+24 339.778 10649.7 
129 2.57e-05 134.919 2.27455e+24 340.741 10700.5 
130 2.59e-05 134.597 2.25461e+24 342.318 10655.8 
131 2.61e-05 134.503 2.24741e+24 343.037 10644 
132 2.63e-05 134.656 2.25166e+24 343.908 10691.3 
133 2.65e-05 134.592 2.23835e+24 343.961 10629.7 
134 2.67e-05 134.434 2.23508e+24 345.229 10653.3 
135 2.69e-05 134.496 2.23251e+24 345.278 10642.6 
136 2.71e-05 134.366 2.23079e+24 346.252 10664.3 
137 2.73e-05 134.434 2.22091e+24 347.701 10661.5 
138 2.75e-05 134.363 2.2103e+24 349.282 10658.8 
139 2.77e-05 134.236 2.20818e+24 349.321 10649.8 
140 2.79e-05 134.463 2.20752e+24 349.278 10645.3 
141 2.81e-05 134.086 2.19552e+24 351.285 10648.3 
142 2.83e-05 134.127 2.17802e+24 352.901 10612 
143 2.85e-05 134.108 2.17962e+24 353.986 10652.5 
144 2.87e-05 134.199 2.17471e+24 354.73 10650.8 
145 2.89e-05 134.072 2.16763e+24 356.108 10657.4 
146 2.91e-05 134.046 2.16795e+24 355.857 10651.4 
147 2.93e-05 133.945 2.16236e+24 356.886 10654.7 
148 2.95e-05 134.01 2.15771e+24 357.44 10648.3 
149 2.97e-05 134.132 2.1487e+24 358.965 10649 
150 2.99e-05 133.962 2.15304e+24 359.469 10685.6 
151 3.01e-05 133.917 2.14254e+24 360.036 10650.2 
152 3.03e-05 134.146 2.14389e+24 360.309 10665 
153 3.05e-05 133.832 2.12801e+24 361.971 10634.8 
154 3.07e-05 133.885 2.13016e+24 363.459 10689.3 
155 3.09e-05 133.883 2.12542e+24 363.328 10661.7 
156 3.11e-05 133.865 2.1243e+24 363.627 10664.9 
157 3.13e-05 133.726 2.1115e+24 365.06 10642.4 
158 3.15e-05 133.758 2.11164e+24 365.604 10659 
159 3.17e-05 133.56 2.10496e+24 365.051 10609.2 
160 3.19e-05 133.821 2.10264e+24 366.74 10646.5 
161 3.21e-05 133.759 2.10018e+24 367.325 10651 
162 3.23e-05 133.579 2.0901e+24 369.395 10659.6 
163 3.25e-05 133.762 2.08963e+24 369.213 10652 
164 3.27e-05 133.767 2.08193e+24 370.693 10655.3 
165 3.29e-05 133.41 2.0727e+24 372.029 10646.2 
166 3.31e-05 133.423 2.07301e+24 371.623 10636.2 
167 3.33e-05 133.291 2.06325e+24 372.591 10613.7 
168 3.35e-05 133.425 2.05963e+24 374.006 10635.3 
169 3.37e-05 133.308 2.05386e+24 375.197 10639.3 
170 3.39e-05 133.516 2.05272e+24 374.708 10619.6 
171 3.41e-05 133.214 2.0446e+24 376.078 10616.2 
172 3.43e-05 133.238 2.03747e+24 377.804 10627.8 
173 3.45e-05 133.372 2.03672e+24 378.531 10644.3 
174 3.47e-05 133.22 2.03164e+24 380.236 10665.5 
175 3.49e-05 133.21 2.03374e+24 379.339 10651.4 
176 3.51e-05 133.235 2.02651e+24 380.613 10649.2 
177 3.53e-05 133.155 2.02394e+24 380.839 10642 
178 3.55e-05 133.188 2.02118e+24 381.335 10641.3 
179 3.57e-05 133.138 2.01855e+24 382.166 10650.6 
180 3.59e-05 133.114 2.00902e+24 383.62 10640.6 
181 3.61e-05 132.991 2.00391e+24 383.789 10618.3 
182 3.63e-05 133.094 2.00582e+24 383.334 10615.8 
183 3.65e-05 133.046 2.00083e+24 384.717 10627.6 
184 3.67e-05 133.015 2.00019e+24 385.535 10646.8 
185 3.69e-05 133.143 1.99863e+24 386.246 10658.1 
186 3.71e-05 132.848 1.99394e+24 387.008 10654.1 
187 3.73e-05 133.037 1.99171e+24 387.77 10663.1 
188 3.75e-05 132.814 1.99062e+24 387.34 10645.5 
189 3.77e-05 132.944 1.98646e+24 388.581 10657.3 
190 3.79e-05 133.024 1.98654e+24 390.008 10696.8 
191 3.81e-05 132.885 1.97745e+24 389.634 10637.6 
192 3.83e-05 132.899 1.97255e+24 390.617 10638.1 
193 3.85e-05 132.921 1.98046e+24 391.228 10697.4 
194 3.87e-05 132.96 1.97639e+24 391.373 10679.4 
195 3.89e-05 132.885 1.97642e+24 391.35 10678.9 
196 3.91e-05 132.956 1.97282e+24 392.172 10681.9 
197 3.93e-05 132.817 1.96812e+24 392.932 10677.1 
198 3.95e-05 132.586 1.95678e+24 393.226 10623.5 
199 3.97e-05 132.77 1.9598e+24 394.753 10681.2 
200 3.99e-05 132.743 1.96102e+24 395.479 10707.5 
