ITEM: TIMESTEP
100000
ITEM: NUMBER OF CELLS
200
ITEM: BOX BOUNDS pp ss pp
0 0.0001
0 4e-05
0 0.0001
ITEM: CELLS id yc f_rho[1] f_rho[2] f_state[1] f_state[2] 
1 1e-07 143.019 5.06686e+24 200.122 13999.7 
2 3e-07 134.356 3.87899e+24 220.63 11815.9 
3 5e-07 135.108 3.91502e+24 222.91 12048.9 
4 7e-07 134.53 3.81126e+24 226.668 11927.3 
5 9e-07 133.936 3.75527e+24 228.695 11857.2 
6 1.1e-06 133.666 3.69485e+24 231.563 11812.7 
7 1.3e-06 133.742 3.69739e+24 232.396 11863.4 
8 1.5e-06 133.622 3.66459e+24 234.544 11866.8 
9 1.7e-06 133.619 3.66122e+24 235.897 11924.3 
10 1.9e-06 133.082 3.58986e+24 237.532 11772.9 
11 2.1e-06 133.128 3.60853e+24 237.84 11849.5 
12 2.3e-06 132.76 3.58765e+24 239.393 11857.8 
13 2.5e-06 132.821 3.54765e+24 240.923 11800.5 
14 2.7e-06 132.706 3.56033e+24 241.661 11879 
15 2.9e-06 132.295 3.49932e+24 243.142 11747 
16 3.1e-06 132.341 3.50402e+24 245.096 11857.3 
17 3.3e-06 132.222 3.45218e+24 246.96 11770.7 
18 3.5e-06 132.09 3.4402e+24 247.852 11772.3 
19 3.7e-06 132.104 3.4515e+24 248.208 11827.9 
20 3.9e-06 131.999 3.41113e+24 249.776 11763.4 
21 4.1e-06 131.513 3.35696e+24 251.824 11671.5 
22 4.3e-06 131.932 3.37704e+24 252.21 11759.3 
23 4.5e-06 131.803 3.37111e+24 253.064 11778.4 
24 4.7e-06 131.508 3.32613e+24 254.638 11693.5 
25 4.9e-06 131.445 3.31492e+24 256.584 11743.2 
26 5.1e-06 131.473 3.30609e+24 258.462 11797.6 
27 5.3e-06 131.363 3.28031e+24 259.42 11749 
28 5.5e-06 131.138 3.26421e+24 260.95 11760.3 
29 5.7e-06 130.862 3.24014e+24 262.235 11731.1 
30 5.9e-06 131.1 3.23698e+24 262.609 11736.4 
31 6.1e-06 131.052 3.21316e+24 264.003 11711.8 
32 6.3e-06 130.677 3.17524e+24 266.113 11666.1 
33 6.5e-06 130.618 3.16276e+24 267.691 11689.2 
34 6.7e-06 130.477 3.16739e+24 269.458 11783.5 
35 6.9e-06 130.491 3.1288e+24 270.501 11685 
36 7.1e-06 130.345 3.1229e+24 271.816 11719.7 
37 7.3e-06 129.861 3.07828e+24 273.118 11607.6 
38 7.5e-06 129.638 3.06063e+24 275.592 11645.5 
39 7.7e-06 129.772 3.06668e+24 276.069 11688.8 
40 7.9e-06 129.95 3.05502e+24 276.86 11677.7 
41 8.1e-06 129.747 3.05216e+24 277.68 11701.3 
42 8.3e-06 129.655 3.01863e+24 278.126 11591.4 
43 8.5e-06 129.809 3.02385e+24 279.455 11666.9 
44 8.7e-06 129.272 2.97799e+24 281.66 11580.6 
45 8.9e-06 129.347 2.97508e+24 282.304 11595.8 
46 9.1e-06 128.952 2.96523e+24 283.514 11606.9 
47 9.3e-06 129.441 2.96285e+24 284.926 11655.3 
48 9.5e-06 129.639 2.97319e+24 285.194 11707 
49 9.7e-06 129.298 2.95422e+24 286.993 11705.7 
50 9.9e-06 129.129 2.91242e+24 288.153 11586.7 
51 1.01e-05 128.923 2.90907e+24 289.285 11618.9 
52 1.03e-05 129.048 2.91204e+24 289.593 11643.1 
53 1.05e-05 129.02 2.8983e+24 291.273 11655.4 
54 1.07e-05 128.559 2.859e+24 292.661 11552.2 
55 1.09e-05 128.877 2.88228e+24 293.09 11663.3 
56 1.11e-05 128.535 2.85775e+24 294.87 11634.2 
57 1.13e-05 128.801 2.84305e+24 296.785 11649.6 
58 1.15e-05 128.322 2.82255e+24 297.276 11584.7 
59 1.17e-05 128.32 2.80064e+24 297.536 11504.8 
60 1.19e-05 128.65 2.8052e+24 299.963 11617.5 
61 1.21e-05 128.366 2.77744e+24 301.33 11555 
62 1.23e-05 128.14 2.75661e+24 302.07 11496.5 
63 1.25e-05 128.207 2.77109e+24 303.608 11615.7 
64 1.27e-05 128.23 2.75124e+24 305.576 11607.3 
65 1.29e-05 128.222 2.74058e+24 305.617 11563.9 
66 1.31e-05 127.754 2.73044e+24 307.635 11597.1 
67 1.33e-05 127.65 2.69915e+24 309.013 11515.6 
68 1.35e-05 127.904 2.71565e+24 309.89 11618.9 
69 1.37e-05 127.759 2.69381e+24 310.61 11552.2 
70 1.39e-05 127.767 2.68677e+24 311.832 11567.4 
71 1.41e-05 127.481 2.66007e+24 313.86 11526.9 
72 1.43e-05 127.312 2.63798e+24 314.779 11464.6 
73 1.45e-05 127.496 2.64143e+24 315.901 11520.6 
74 1.47e-05 127.685 2.6344e+24 317.34 11542.2 
75 1.49e-05 127.292 2.63063e+24 319.563 11606.5 
76 1.51e-05 127.58 2.62164e+24 319.949 11580.8 
77 1.53e-05 127.411 2.59697e+24 320.986 11509 
78 1.55e-05 127.279 2.59491e+24 322.246 11545 
79 1.57e-05 127.227 2.59694e+24 322.841 11575.3 
80 1.59e-05 126.958 2.58026e+24 324.057 11544.3 
81 1.61e-05 127.22 2.55243e+24 327.518 11541.8 
82 1.63e-05 126.909 2.56339e+24 326.71 11562.7 
83 1.65e-05 126.84 2.54232e+24 327.776 11505.1 
84 1.67e-05 126.915 2.52439e+24 329.896 11497.9 
85 1.69e-05 127.024 2.52322e+24 329.992 11495.9 
86 1.71e-05 126.631 2.51687e+24 331.794 11529.5 
87 1.73e-05 126.652 2.51699e+24 332.541 11556.1 
88 1.75e-05 126.709 2.50334e+24 333.276 11518.8 
89 1.77e-05 126.544 2.49739e+24 334.641 11538.5 
90 1.79e-05 126.757 2.49064e+24 335.154 11524.9 
91 1.81e-05 126.57 2.47744e+24 335.956 11491.3 
92 1.83e-05 126.534 2.46655e+24 337.466 11492.2 
93 1.85e-05 126.451 2.45186e+24 338.152 11447 
94 1.87e-05 126.297 2.45653e+24 338.145 11468.6 
95 1.89e-05 126.372 2.43659e+24 340.351 11449.7 
96 1.91e-05 126.281 2.4233e+24 340.715 11399.4 
97 1.93e-05 126.335 2.4258e+24 341.465 11436.3 
98 1.95e-05 126.23 2.42278e+24 343.354 11485.2 
99 1.97e-05 126.321 2.41721e+24 344.119 11484.3 
100 1.99e-05 126.17 2.40394e+24 346.057 11485.7 
101 2.01e-05 126 2.40135e+24 346.729 11495.5 
102 2.03e-05 125.879 2.3877e+24 347.969 11471.1 
103 2.05e-05 126.008 2.37786e+24 349.33 11468.4 
104 2.07e-05 126.111 2.40224e+24 348.162 11547.3 
105 2.09e-05 125.735 2.3643e+24 350.86 11453 
106 2.11e-05 126.091 2.37028e+24 351.778 11512 
107 2.13e-05 125.653 2.3593e+24 353.226 11505.8 
108 2.15e-05 125.715 2.35292e+24 354.214 11506.8 
109 2.17e-05 125.772 2.33601e+24 355.415 11462.9 
110 2.19e-05 125.66 2.33712e+24 357.053 11521.2 
111 2.21e-05 125.659 2.32943e+24 357.429 11495.4 
112 2.23e-05 125.611 2.3102e+24 358.91 11447.7 
113 2.25e-05 125.433 2.31286e+24 358.611 11451.3 
114 2.27e-05 125.665 2.31496e+24 358.34 11453.1 
115 2.29e-05 125.774 2.30211e+24 360.07 11444.5 
116 2.31e-05 125.579 2.29166e+24 361.373 11433.8 
117 2.33e-05 125.696 2.29325e+24 361.87 11457.4 
118 2.35e-05 125.276 2.28819e+24 363.171 11473.3 
119 2.37e-05 125.553 2.27199e+24 364.155 11422.9 
120 2.39e-05 125.302 2.2784e+24 364.657 11470.9 
121 2.41e-05 125.525 2.272e+24 365.573 11467.4 
122 2.43e-05 125.32 2.25612e+24 366.486 11415.7 
123 2.45e-05 125.493 2.27192e+24 367.806 11537.1 
124 2.47e-05 125.232 2.23596e+24 369.603 11409.9 
125 2.49e-05 125.065 2.23235e+24 370.103 11406.9 
126 2.51e-05 125.257 2.24309e+24 370.574 11476.4 
127 2.53e-05 125.054 2.22945e+24 372.635 11470 
128 2.55e-05 124.947 2.22027e+24 372.303 11412.6 
129 2.57e-05 124.991 2.21559e+24 374.076 11442.8 
130 2.59e-05 125.005 2.22173e+24 373.955 11470.8 
131 2.61e-05 124.958 2.20881e+24 377.289 11505.8 
132 2.63e-05 124.986 2.20891e+24 376.76 11490.2 
133 2.65e-05 124.783 2.19029e+24 377.984 11430.3 
134 2.67e-05 124.588 2.18799e+24 378.559 11435.7 
135 2.69e-05 124.75 2.19218e+24 377.847 11436 
136 2.71e-05 124.892 2.16336e+24 380.458 11363.7 
137 2.73e-05 124.761 2.16776e+24 381.252 11410.5 
138 2.75e-05 124.758 2.17218e+24 381.825 11451 
139 2.77e-05 124.74 2.15647e+24 382.79 11396.9 
140 2.79e-05 124.731 2.15581e+24 384.652 11448.9 
141 2.81e-05 124.704 2.15584e+24 384.612 11447.8 
142 2.83e-05 124.55 2.15469e+24 384.998 11453.2 
143 2.85e-05 124.291 2.12075e+24 387.507 11346.3 
144 2.87e-05 124.628 2.14414e+24 388.239 11493 
145 2.89e-05 124.43 2.11958e+24 389.135 11387.6 
146 2.91e-05 124.512 2.12917e+24 388.148 11410.1 
147 2.93e-05 124.257 2.0984e+24 392.015 11357.2 
148 2.95e-05 124.429 2.11672e+24 392.327 11465.5 
149 2.97e-05 124.472 2.10018e+24 392.398 11378 
150 2.99e-05 124.399 2.09607e+24 393.168 11378.1 
151 3.01e-05 124.188 2.0937e+24 394.345 11399.2 
152 3.03e-05 124.164 2.09988e+24 394.913 11449.3 
153 3.05e-05 124.059 2.07632e+24 397.465 11394 
154 3.07e-05 124.18 2.0798e+24 397.272 11407.6 
155 3.09e-05 124.007 2.07175e+24 398.358 11394.5 
156 3.11e-05 124.2 2.07198e+24 399.041 11415.2 
157 3.13e-05 124.084 2.05472e+24 400.108 11350.5 
158 3.15e-05 123.859 2.05797e+24 400.703 11385.3 
159 3.17e-05 124.183 2.06064e+24 400.593 11396.9 
160 3.19e-05 124.108 2.05106e+24 401.973 11383 
161 3.21e-05 123.936 2.03447e+24 403.421 11331.7 
162 3.23e-05 124.349 2.04308e+24 403.724 11388.1 
163 3.25e-05 123.922 2.03205e+24 405.942 11388.9 
164 3.27e-05 123.987 2.03594e+24 406.06 11414 
165 3.29e-05 123.879 2.02705e+24 407.299 11398.8 
166 3.31e-05 124.014 2.02366e+24 408.287 11407.4 
167 3.33e-05 123.736 2.01609e+24 409.226 11390.8 
168 3.35e-05 123.795 2.01317e+24 409.65 11386.2 
169 3.37e-05 123.775 2.01083e+24 410.056 11384.2 
170 3.39e-05 123.826 2.00238e+24 411.385 11373.1 
171 3.41e-05 123.993 2.01234e+24 411.719 11438.9 
172 3.43e-05 123.724 1.99129e+24 414.142 11385.9 
173 3.45e-05 123.721 1.98534e+24 415.267 11382.7 
174 3.47e-05 123.78 1.99214e+24 413.942 11385.2 
175 3.49e-05 123.813 1.98884e+24 415.71 11415 
176 3.51e-05 123.913 1.99115e+24 417.162 11468.1 
177 3.53e-05 123.506 1.97431e+24 419.296 11429.3 
178 3.55e-05 123.663 1.97275e+24 420.216 11445.3 
179 3.57e-05 123.421 1.95556e+24 422.055 11395.2 
180 3.59e-05 123.631 1.95426e+24 422.619 11402.9 
181 3.61e-05 123.762 1.95784e+24 422.664 11425 
182 3.63e-05 123.505 1.95774e+24 423.293 11441.4 
183 3.65e-05 123.208 1.93234e+24 425.384 11348.7 
184 3.67e-05 123.46 1.95749e+24 423.067 11433.9 
185 3.69e-05 123.347 1.92974e+24 424.207 11302.1 
186 3.71e-05 123.316 1.94091e+24 425.663 11406.6 
187 3.73e-05 123.282 1.92191e+24 428.191 11362 
188 3.75e-05 123.355 1.93353e+24 426.489 11385.2 
189 3.77e-05 123.289 1.91869e+24 427.521 11325.2 
190 3.79e-05 123.25 1.93447e+24 427.258 11411.3 
191 3.81e-05 123.365 1.92167e+24 427.964 11354.5 
192 3.83e-05 123.345 1.93155e+24 427.647 11404.5 
193 3.85e-05 123.702 1.93393e+24 428.587 11443.6 
194 3.87e-05 123.281 1.93493e+24 428.089 11436.2 
195 3.89e-05 123.274 1.93921e+24 427.527 11446.5 
196 3.91e-05 123.343 1.95973e+24 425.326 11508 
197 3.93e-05 123.661 1.96378e+24 422.474 11454.5 
198 3.95e-05 123.95 1.98443e+24 421.687 11553.4 
199 3.97e-05 123.634 1.98627e+24 418.983 11490 
200 3.99e-05 125.119 2.26726e+24 397.893 12455.2 
