ITEM: TIMESTEP
100000
ITEM: NUMBER OF CELLS
200
ITEM: BOX BOUNDS pp ss pp
0 0.0001
0 4e-05
0 0.0001
ITEM: CELLS id yc f_rho[1] f_rho[2] f_state[1] f_state[2] 
1 1e-07 144.207 3.7374e+24 208.054 10735.6 
2 3e-07 144.133 3.7214e+24 208.724 10724.1 
3 5e-07 143.927 3.68003e+24 210.732 10706.9 
4 7e-07 143.696 3.64921e+24 212.369 10699.7 
5 9e-07 143.613 3.63872e+24 213.237 10712.6 
6 1.1e-06 143.394 3.60349e+24 215.037 10698.4 
7 1.3e-06 143.096 3.55992e+24 216.98 10664.6 
8 1.5e-06 143.069 3.5515e+24 218.134 10696 
9 1.7e-06 143.061 3.53189e+24 219.168 10687.3 
10 1.9e-06 142.698 3.50608e+24 220.548 10676 
11 2.1e-06 142.611 3.49229e+24 221.615 10685.5 
12 2.3e-06 142.361 3.45865e+24 223.484 10671.8 
13 2.5e-06 142.434 3.4569e+24 223.656 10674.6 
14 2.7e-06 142.352 3.43265e+24 225.604 10692 
15 2.9e-06 142.267 3.41973e+24 226.663 10701.8 
16 3.1e-06 142.073 3.39214e+24 228.355 10694.7 
17 3.3e-06 141.866 3.3618e+24 229.227 10639.5 
18 3.5e-06 141.686 3.34687e+24 230.253 10639.6 
19 3.7e-06 141.659 3.32397e+24 232.073 10650.4 
20 3.9e-06 141.657 3.32044e+24 233.329 10696.7 
21 4.1e-06 141.548 3.30493e+24 234.297 10690.8 
22 4.3e-06 141.483 3.28762e+24 235.585 10693.3 
23 4.5e-06 141.123 3.26047e+24 236.526 10647.4 
24 4.7e-06 141.198 3.24718e+24 238.329 10684.8 
25 4.9e-06 140.98 3.22731e+24 239.272 10661.4 
26 5.1e-06 141.082 3.2117e+24 241.102 10691 
27 5.3e-06 140.932 3.19823e+24 241.77 10675.7 
28 5.5e-06 140.799 3.19006e+24 241.855 10652.2 
29 5.7e-06 140.732 3.18507e+24 242.74 10674.4 
30 5.9e-06 140.618 3.15983e+24 244.476 10665.5 
31 6.1e-06 140.378 3.1329e+24 246.104 10645.1 
32 6.3e-06 140.419 3.12943e+24 246.556 10652.8 
33 6.5e-06 140.325 3.1164e+24 247.337 10642 
34 6.7e-06 140.28 3.10042e+24 248.207 10624.7 
35 6.9e-06 140.252 3.10094e+24 249.626 10687.3 
36 7.1e-06 140.11 3.08013e+24 250.9 10669.7 
37 7.3e-06 139.961 3.07087e+24 251.44 10660.5 
38 7.5e-06 140.061 3.06503e+24 252.796 10697.6 
39 7.7e-06 139.868 3.04507e+24 253.999 10678.6 
40 7.9e-06 139.809 3.03414e+24 254.383 10656.3 
41 8.1e-06 139.728 3.02232e+24 255.69 10669.3 
42 8.3e-06 139.623 3.00438e+24 257.191 10668.3 
43 8.5e-06 139.521 2.9908e+24 258.183 10661 
44 8.7e-06 139.456 2.98085e+24 259.061 10661.7 
45 8.9e-06 139.522 2.97426e+24 259.221 10644.7 
46 9.1e-06 139.357 2.96409e+24 260.419 10657.3 
47 9.3e-06 139.209 2.95078e+24 262.626 10699.4 
48 9.5e-06 139.202 2.94134e+24 263.764 10711.3 
49 9.7e-06 139.099 2.91635e+24 264.563 10652.5 
50 9.9e-06 139.024 2.90124e+24 266.598 10678.8 
51 1.01e-05 138.937 2.89299e+24 267.371 10679.3 
52 1.03e-05 138.859 2.89277e+24 267.253 10673.8 
53 1.05e-05 138.872 2.88512e+24 267.722 10664.3 
54 1.07e-05 138.52 2.84627e+24 269.776 10601.4 
55 1.09e-05 138.747 2.85392e+24 271.215 10686.6 
56 1.11e-05 138.592 2.83994e+24 271.77 10656 
57 1.13e-05 138.667 2.84064e+24 272.038 10669.1 
58 1.15e-05 138.492 2.8282e+24 273.99 10698.6 
59 1.17e-05 138.475 2.81427e+24 275.154 10691.2 
60 1.19e-05 138.303 2.79298e+24 275.903 10639.2 
61 1.21e-05 138.33 2.7885e+24 276.114 10630.2 
62 1.23e-05 138.152 2.78507e+24 277.449 10668.5 
63 1.25e-05 138.344 2.78452e+24 278.749 10716.3 
64 1.27e-05 138.137 2.7583e+24 279.716 10652.3 
65 1.29e-05 138.015 2.74199e+24 281.123 10642.6 
66 1.31e-05 138.031 2.74369e+24 282.216 10690.5 
67 1.33e-05 137.852 2.72119e+24 283.482 10650.4 
68 1.35e-05 137.818 2.71559e+24 285.01 10685.8 
69 1.37e-05 137.619 2.70115e+24 285.345 10641.5 
70 1.39e-05 137.853 2.70056e+24 286.231 10672.2 
71 1.41e-05 137.612 2.68942e+24 287.523 10676.1 
72 1.43e-05 137.723 2.68306e+24 288.863 10700.5 
73 1.45e-05 137.39 2.65985e+24 290.72 10676.2 
74 1.47e-05 137.412 2.65867e+24 291.398 10696.3 
75 1.49e-05 137.51 2.65985e+24 291.616 10709.1 
76 1.51e-05 137.34 2.64362e+24 292.436 10673.7 
77 1.53e-05 137.422 2.63733e+24 293.581 10690 
78 1.55e-05 137.328 2.62442e+24 294.273 10662.7 
79 1.57e-05 137.165 2.61348e+24 295.18 10651 
80 1.59e-05 137.15 2.6091e+24 296.903 10695.2 
81 1.61e-05 137.207 2.60679e+24 297.093 10692.6 
82 1.63e-05 137.047 2.58842e+24 298.388 10663.5 
83 1.65e-05 137.009 2.58244e+24 298.61 10646.8 
84 1.67e-05 136.909 2.57289e+24 299.787 10649.2 
85 1.69e-05 136.908 2.55834e+24 301.804 10660.2 
86 1.71e-05 136.795 2.54824e+24 302.903 10656.8 
87 1.73e-05 136.738 2.5444e+24 303.538 10663.1 
88 1.75e-05 136.667 2.53385e+24 304.613 10656.4 
89 1.77e-05 136.657 2.52536e+24 305.434 10649.3 
90 1.79e-05 136.571 2.51555e+24 306.851 10657.2 
91 1.81e-05 136.621 2.50418e+24 308.911 10680.3 
92 1.83e-05 136.317 2.48458e+24 309.529 10617.9 
93 1.85e-05 136.404 2.48673e+24 310.651 10665.6 
94 1.87e-05 136.407 2.47769e+24 311.388 10652 
95 1.89e-05 136.372 2.47501e+24 311.773 10653.6 
96 1.91e-05 136.315 2.47212e+24 312.34 10660.6 
97 1.93e-05 136.117 2.45956e+24 313.452 10644.2 
98 1.95e-05 136.281 2.46234e+24 313.564 10660 
99 1.97e-05 136.208 2.45235e+24 314.956 10663.9 
100 1.99e-05 136.107 2.44496e+24 317 10700.8 
101 2.01e-05 136.136 2.44022e+24 317.749 10705.2 
102 2.03e-05 135.83 2.42323e+24 318.407 10652.7 
103 2.05e-05 136.02 2.42442e+24 318.856 10673 
104 2.07e-05 135.92 2.42105e+24 320.2 10703.1 
105 2.09e-05 135.998 2.41729e+24 319.272 10655.5 
106 2.11e-05 135.9 2.4016e+24 321.141 10648.3 
107 2.13e-05 135.796 2.3975e+24 321.282 10634.8 
108 2.15e-05 135.9 2.39931e+24 322.874 10695.5 
109 2.17e-05 135.75 2.38516e+24 324.083 10672.3 
110 2.19e-05 135.66 2.37435e+24 325.538 10671.6 
111 2.21e-05 135.725 2.37316e+24 326.479 10697.1 
112 2.23e-05 135.633 2.36523e+24 327.12 10682.3 
113 2.25e-05 135.526 2.35419e+24 328.506 10677.5 
114 2.27e-05 135.464 2.34517e+24 329.591 10671.7 
115 2.29e-05 135.567 2.34484e+24 329.878 10679.4 
116 2.31e-05 135.481 2.33322e+24 331.23 10670.1 
117 2.33e-05 135.383 2.32545e+24 332.387 10671.7 
118 2.35e-05 135.375 2.32484e+24 333.461 10703.4 
119 2.37e-05 135.23 2.31822e+24 333.655 10679.1 
120 2.39e-05 135.188 2.30507e+24 334.976 10660.6 
121 2.41e-05 135.306 2.30661e+24 335.784 10693.4 
122 2.43e-05 135.025 2.29257e+24 336.376 10647.1 
123 2.45e-05 135.151 2.29116e+24 335.99 10628.3 
124 2.47e-05 135.185 2.29306e+24 337.295 10678.5 
125 2.49e-05 134.999 2.27829e+24 338.718 10654.4 
126 2.51e-05 135.017 2.27492e+24 339.621 10667.1 
127 2.53e-05 135.007 2.27179e+24 340.194 10670.4 
128 2.55e-05 134.934 2.2651e+24 340.715 10655.2 
129 2.57e-05 134.82 2.24862e+24 341.674 10607.5 
130 2.59e-05 134.917 2.25254e+24 341.596 10623.5 
131 2.61e-05 134.817 2.24804e+24 343.602 10664.5 
132 2.63e-05 134.74 2.23877e+24 344.406 10645.5 
133 2.65e-05 134.663 2.22789e+24 345.493 10627.1 
134 2.67e-05 134.737 2.23391e+24 346.297 10680.7 
135 2.69e-05 134.864 2.23376e+24 345.975 10670 
136 2.71e-05 134.626 2.22481e+24 347.393 10670.8 
137 2.73e-05 134.584 2.21833e+24 348.545 10675 
138 2.75e-05 134.635 2.21328e+24 349.151 10669.2 
139 2.77e-05 134.56 2.20931e+24 349.074 10647.8 
140 2.79e-05 134.512 2.20052e+24 351.285 10672.6 
141 2.81e-05 134.61 2.20137e+24 350.673 10658.1 
142 2.83e-05 134.465 2.19466e+24 352.445 10679.3 
143 2.85e-05 134.424 2.19004e+24 352.974 10672.8 
144 2.87e-05 134.497 2.19289e+24 353.12 10691.1 
145 2.89e-05 134.44 2.18053e+24 355.114 10690.9 
146 2.91e-05 134.464 2.17967e+24 354.696 10674.1 
147 2.93e-05 134.174 2.16233e+24 356.489 10642.7 
148 2.95e-05 134.221 2.15667e+24 357.808 10654.1 
149 2.97e-05 134.42 2.16236e+24 358.025 10688.7 
150 2.99e-05 134.089 2.14277e+24 359.395 10632.4 
151 3.01e-05 134.159 2.13975e+24 359.531 10621.4 
152 3.03e-05 134.119 2.13413e+24 360.441 10620.3 
153 3.05e-05 134.118 2.1336e+24 361.796 10657.6 
154 3.07e-05 134.186 2.1317e+24 362.805 10677.8 
155 3.09e-05 134.121 2.12338e+24 363.318 10651.2 
156 3.11e-05 133.975 2.11346e+24 364.619 10639.4 
157 3.13e-05 133.831 2.11091e+24 365.448 10650.7 
158 3.15e-05 133.974 2.11133e+24 366.461 10682.4 
159 3.17e-05 133.887 2.09951e+24 367.964 10666.1 
160 3.19e-05 134.037 2.10385e+24 367.64 10678.8 
161 3.21e-05 133.792 2.09397e+24 368.911 10665.3 
162 3.23e-05 133.891 2.0953e+24 368.73 10666.9 
163 3.25e-05 133.726 2.08361e+24 370.223 10650.3 
164 3.27e-05 133.733 2.07911e+24 370.879 10646.2 
165 3.29e-05 133.791 2.07651e+24 372.348 10675 
166 3.31e-05 133.689 2.07e+24 372.845 10655.7 
167 3.33e-05 133.652 2.06756e+24 373.153 10651.9 
168 3.35e-05 133.496 2.05627e+24 375.398 10657.5 
169 3.37e-05 133.599 2.0576e+24 375.931 10679.5 
170 3.39e-05 133.593 2.04924e+24 376.915 10664 
171 3.41e-05 133.664 2.0482e+24 377.506 10675.3 
172 3.43e-05 133.507 2.04148e+24 378.649 10672.5 
173 3.45e-05 133.497 2.03507e+24 378.998 10648.8 
174 3.47e-05 133.529 2.03237e+24 379.988 10662.4 
175 3.49e-05 133.295 2.01898e+24 381.662 10638.8 
176 3.51e-05 133.287 2.01843e+24 381.759 10638.7 
177 3.53e-05 133.422 2.02433e+24 381.421 10660.3 
178 3.55e-05 133.228 2.01196e+24 383.369 10649.3 
179 3.57e-05 133.232 2.00781e+24 384.332 10654 
180 3.59e-05 133.337 2.00567e+24 385.582 10677.3 
181 3.61e-05 133.278 2.01021e+24 384.683 10676.5 
182 3.63e-05 133.22 2.00105e+24 385.635 10654.1 
183 3.65e-05 133.154 1.9941e+24 384.499 10585.8 
184 3.67e-05 133.095 1.99442e+24 386.448 10641.2 
185 3.69e-05 133.208 1.99651e+24 387.883 10691.9 
186 3.71e-05 133.16 1.9859e+24 388.863 10662 
187 3.73e-05 133.137 1.98704e+24 388.661 10662.5 
188 3.75e-05 132.904 1.97567e+24 389.866 10634.4 
189 3.77e-05 133.243 1.9856e+24 389.485 10677.4 
190 3.79e-05 132.98 1.96961e+24 391.326 10641.5 
191 3.81e-05 133.149 1.98269e+24 390.642 10693.4 
192 3.83e-05 133.104 1.9781e+24 390.495 10664.7 
193 3.85e-05 133.11 1.97474e+24 391.239 10666.8 
194 3.87e-05 133 1.97344e+24 392.9 10705.1 
195 3.89e-05 132.976 1.96758e+24 392.734 10668.7 
196 3.91e-05 133.004 1.97027e+24 392.997 10690.5 
197 3.93e-05 132.995 1.97443e+24 392.734 10705.9 
198 3.95e-05 133.053 1.96883e+24 393.839 10705.6 
199 3.97e-05 133.153 1.97028e+24 393.19 10695.8 
200 3.99e-05 132.981 1.96373e+24 394.518 10696.2 
