ITEM: TIMESTEP
100000
ITEM: NUMBER OF CELLS
200
ITEM: BOX BOUNDS pp ss pp
0 0.0001
0 4e-05
0 0.0001
ITEM: CELLS id yc f_rho[1] f_rho[2] f_state[1] f_state[2] 
1 1e-07 144.106 3.73452e+24 207.308 10688.9 
2 3e-07 143.939 3.70352e+24 208.478 10660 
3 5e-07 143.725 3.68857e+24 209.967 10692.8 
4 7e-07 143.754 3.6636e+24 211.205 10683.1 
5 9e-07 143.321 3.61826e+24 214.048 10692.9 
6 1.1e-06 143.382 3.60791e+24 215.208 10720.1 
7 1.3e-06 143.048 3.55903e+24 217.405 10682.8 
8 1.5e-06 142.835 3.5277e+24 218.931 10663.1 
9 1.7e-06 142.925 3.52343e+24 220.073 10705.7 
10 1.9e-06 142.581 3.48892e+24 221.787 10683.4 
11 2.1e-06 142.424 3.45819e+24 223.067 10650.4 
12 2.3e-06 142.507 3.4681e+24 223.934 10722.5 
13 2.5e-06 142.253 3.44343e+24 225.273 10709.8 
14 2.7e-06 142.233 3.4192e+24 226.302 10683.1 
15 2.9e-06 142.16 3.39779e+24 227.656 10679.7 
16 3.1e-06 141.824 3.37288e+24 229.032 10665.5 
17 3.3e-06 141.964 3.37701e+24 229.861 10717.2 
18 3.5e-06 141.633 3.33659e+24 231.599 10669 
19 3.7e-06 141.607 3.32784e+24 232.375 10676.6 
20 3.9e-06 141.468 3.30288e+24 233.8 10661.5 
21 4.1e-06 141.516 3.29775e+24 234.557 10679.4 
22 4.3e-06 141.403 3.28037e+24 235.55 10668.2 
23 4.5e-06 141.325 3.26636e+24 237.353 10703.9 
24 4.7e-06 141.035 3.24127e+24 238.306 10664.3 
25 4.9e-06 141.15 3.25465e+24 238.302 10708.2 
26 5.1e-06 141.13 3.23212e+24 240.212 10719.3 
27 5.3e-06 141.029 3.21428e+24 240.867 10689.2 
28 5.5e-06 140.794 3.1893e+24 242.463 10676.4 
29 5.7e-06 140.663 3.18272e+24 242.769 10667.8 
30 5.9e-06 140.547 3.16394e+24 244.827 10694.8 
31 6.1e-06 140.622 3.15092e+24 245.658 10686.9 
32 6.3e-06 140.319 3.12016e+24 247.094 10644.5 
33 6.5e-06 140.284 3.11749e+24 247.434 10650 
34 6.7e-06 140.341 3.11512e+24 249.598 10735 
35 6.9e-06 140.244 3.10057e+24 249.53 10681.9 
36 7.1e-06 140.103 3.07662e+24 251.502 10683.1 
37 7.3e-06 140.066 3.06089e+24 252.399 10666.4 
38 7.5e-06 139.76 3.03231e+24 254.71 10663.6 
39 7.7e-06 139.804 3.03233e+24 255.457 10694.9 
40 7.9e-06 139.681 3.00937e+24 257.245 10688.2 
41 8.1e-06 139.702 3.01456e+24 256.976 10695.5 
42 8.3e-06 139.543 3.00133e+24 258.229 10700.5 
43 8.5e-06 139.307 2.9681e+24 260.303 10667 
44 8.7e-06 139.402 2.96401e+24 260.457 10658.6 
45 8.9e-06 139.333 2.95734e+24 261.43 10674.3 
46 9.1e-06 139.212 2.93141e+24 263.216 10653 
47 9.3e-06 139.255 2.93477e+24 263.541 10678.4 
48 9.5e-06 139.116 2.91543e+24 264.626 10651.7 
49 9.7e-06 138.935 2.91073e+24 265.448 10667.6 
50 9.9e-06 139.105 2.9033e+24 266.834 10695.9 
51 1.01e-05 138.863 2.88242e+24 268.514 10685.8 
52 1.03e-05 138.817 2.86567e+24 270.166 10689.1 
53 1.05e-05 138.775 2.86374e+24 270.115 10679.9 
54 1.07e-05 138.84 2.86112e+24 269.993 10665.3 
55 1.09e-05 138.626 2.84733e+24 271.388 10668.7 
56 1.11e-05 138.661 2.83341e+24 272.499 10660 
57 1.13e-05 138.388 2.81071e+24 274.655 10658.2 
58 1.15e-05 138.548 2.81668e+24 274.947 10692.2 
59 1.17e-05 138.384 2.80132e+24 275.608 10659.5 
60 1.19e-05 138.41 2.80002e+24 276.28 10680.6 
61 1.21e-05 138.348 2.78698e+24 277.261 10668.5 
62 1.23e-05 138.109 2.76948e+24 278.299 10641.2 
63 1.25e-05 138.081 2.76364e+24 280.194 10691.1 
64 1.27e-05 138.127 2.75993e+24 281.324 10719.8 
65 1.29e-05 137.939 2.73388e+24 281.892 10640.1 
66 1.31e-05 138.05 2.73954e+24 282.355 10679.7 
67 1.33e-05 137.941 2.73065e+24 283.211 10677.2 
68 1.35e-05 137.886 2.7192e+24 284.14 10667.4 
69 1.37e-05 137.877 2.7141e+24 284.933 10677.1 
70 1.39e-05 137.642 2.68912e+24 287.278 10665.9 
71 1.41e-05 137.769 2.68748e+24 288.19 10693.2 
72 1.43e-05 137.719 2.68808e+24 288.059 10690.7 
73 1.45e-05 137.81 2.68997e+24 288.764 10724.4 
74 1.47e-05 137.589 2.66906e+24 289.675 10674.6 
75 1.49e-05 137.52 2.66502e+24 290.225 10678.7 
76 1.51e-05 137.303 2.63557e+24 291.882 10621 
77 1.53e-05 137.272 2.62817e+24 293.163 10637.7 
78 1.55e-05 137.279 2.62811e+24 293.84 10662 
79 1.57e-05 137.169 2.61155e+24 295.503 10654.8 
80 1.59e-05 137.099 2.60164e+24 296.385 10646 
81 1.61e-05 137.107 2.60555e+24 296.928 10681.5 
82 1.63e-05 137.184 2.59815e+24 297.741 10680.4 
83 1.65e-05 137.109 2.59426e+24 298.3 10684.4 
84 1.67e-05 136.96 2.58009e+24 300.033 10687.8 
85 1.69e-05 136.761 2.55504e+24 301.429 10633.3 
86 1.71e-05 136.829 2.56296e+24 301.74 10677.2 
87 1.73e-05 136.869 2.5568e+24 302.185 10667.3 
88 1.75e-05 136.805 2.55223e+24 304.129 10716.7 
89 1.77e-05 136.665 2.52994e+24 305.932 10686.1 
90 1.79e-05 136.551 2.51862e+24 306.2 10647.6 
91 1.81e-05 136.69 2.51609e+24 307.233 10672.8 
92 1.83e-05 136.59 2.50858e+24 307.728 10658 
93 1.85e-05 136.514 2.50579e+24 309.194 10696.9 
94 1.87e-05 136.385 2.48987e+24 310.993 10690.8 
95 1.89e-05 136.381 2.49119e+24 310.681 10685.8 
96 1.91e-05 136.283 2.47266e+24 312.688 10674.8 
97 1.93e-05 136.421 2.47857e+24 313.184 10717.3 
98 1.95e-05 136.246 2.46608e+24 313.874 10686.8 
99 1.97e-05 136.093 2.44539e+24 314.896 10631.6 
100 1.99e-05 136.038 2.44491e+24 315.235 10641 
101 2.01e-05 136.046 2.44334e+24 316.802 10687 
102 2.03e-05 136.104 2.43243e+24 317.425 10660.2 
103 2.05e-05 135.848 2.4134e+24 319.055 10631.1 
104 2.07e-05 136.038 2.42354e+24 319.002 10674 
105 2.09e-05 135.901 2.4146e+24 319.944 10666 
106 2.11e-05 135.975 2.41136e+24 321.226 10694.4 
107 2.13e-05 135.827 2.40028e+24 322.374 10683.3 
108 2.15e-05 135.73 2.38573e+24 323.396 10652.2 
109 2.17e-05 135.723 2.38439e+24 323.931 10663.8 
110 2.19e-05 135.702 2.38182e+24 325.22 10694.7 
111 2.21e-05 135.567 2.36598e+24 326.842 10676.6 
112 2.23e-05 135.607 2.3587e+24 326.911 10646 
113 2.25e-05 135.577 2.35705e+24 327.494 10657.5 
114 2.27e-05 135.521 2.34921e+24 328.268 10647.2 
115 2.29e-05 135.279 2.32948e+24 329.902 10610.3 
116 2.31e-05 135.451 2.33977e+24 330.311 10670.4 
117 2.33e-05 135.529 2.34015e+24 330.852 10689.6 
118 2.35e-05 135.449 2.33089e+24 332.731 10707.7 
119 2.37e-05 135.309 2.32547e+24 332.375 10671.4 
120 2.39e-05 135.233 2.31642e+24 334.167 10687.2 
121 2.41e-05 135.251 2.30846e+24 334.584 10663.8 
122 2.43e-05 135.238 2.30145e+24 335.131 10648.8 
123 2.45e-05 135.038 2.29533e+24 335.368 10628 
124 2.47e-05 135.141 2.29305e+24 336.961 10667.8 
125 2.49e-05 135 2.27803e+24 337.52 10615.5 
126 2.51e-05 135.045 2.27727e+24 339.795 10683.5 
127 2.53e-05 135.002 2.2688e+24 339.911 10647.4 
128 2.55e-05 134.952 2.26813e+24 340.689 10668.6 
129 2.57e-05 134.794 2.25455e+24 341.451 10628.5 
130 2.59e-05 134.961 2.25669e+24 342.756 10679.2 
131 2.61e-05 134.801 2.23756e+24 343.751 10619.4 
132 2.63e-05 134.75 2.23244e+24 344.585 10620.9 
133 2.65e-05 134.63 2.22701e+24 346.678 10659.4 
134 2.67e-05 134.77 2.23145e+24 345.67 10649.5 
135 2.69e-05 134.773 2.22859e+24 346.822 10671.4 
136 2.71e-05 134.617 2.22462e+24 347.141 10662.1 
137 2.73e-05 134.691 2.21845e+24 348.147 10663.4 
138 2.75e-05 134.595 2.20929e+24 348.514 10630.6 
139 2.77e-05 134.635 2.20906e+24 349.482 10659 
140 2.79e-05 134.407 2.19223e+24 350.622 10612.3 
141 2.81e-05 134.586 2.20438e+24 351.472 10697 
142 2.83e-05 134.536 2.19179e+24 351.851 10647.3 
143 2.85e-05 134.609 2.1967e+24 353.61 10724.5 
144 2.87e-05 134.512 2.18434e+24 354.736 10698.1 
145 2.89e-05 134.496 2.1758e+24 354.742 10656.5 
146 2.91e-05 134.305 2.17309e+24 355.906 10678.2 
147 2.93e-05 134.342 2.16798e+24 356.987 10685.4 
148 2.95e-05 134.322 2.16715e+24 355.998 10651.7 
149 2.97e-05 134.314 2.16369e+24 357.2 10670.6 
150 2.99e-05 134.14 2.14599e+24 359.283 10645.1 
151 3.01e-05 134.231 2.14611e+24 360.496 10681.6 
152 3.03e-05 133.987 2.13213e+24 361.561 10643.4 
153 3.05e-05 134.164 2.13533e+24 361.337 10652.7 
154 3.07e-05 134.072 2.13104e+24 362.22 10657.3 
155 3.09e-05 134.082 2.12803e+24 363.727 10686.5 
156 3.11e-05 134.16 2.12486e+24 364.053 10680.2 
157 3.13e-05 134.137 2.12303e+24 364.261 10677.1 
158 3.15e-05 133.92 2.10495e+24 366.482 10650.7 
159 3.17e-05 133.884 2.10257e+24 366.622 10642.7 
160 3.19e-05 133.963 2.09969e+24 368.408 10679.9 
161 3.21e-05 133.75 2.09101e+24 369.519 10667.8 
162 3.23e-05 133.779 2.08719e+24 369.769 10655.5 
163 3.25e-05 133.783 2.08718e+24 369.328 10642.8 
164 3.27e-05 133.755 2.08328e+24 370.848 10666.6 
165 3.29e-05 133.643 2.07767e+24 371.926 10668.8 
166 3.31e-05 133.653 2.07147e+24 371.771 10632.5 
167 3.33e-05 133.645 2.06905e+24 373.704 10675.3 
168 3.35e-05 133.631 2.06286e+24 374.201 10657.6 
169 3.37e-05 133.69 2.06335e+24 374.249 10661.5 
170 3.39e-05 133.636 2.06715e+24 374.335 10683.6 
171 3.41e-05 133.618 2.06095e+24 375.24 10677.3 
172 3.43e-05 133.417 2.04298e+24 376.271 10613.2 
173 3.45e-05 133.57 2.05125e+24 376.757 10670 
174 3.47e-05 133.501 2.04543e+24 377.295 10654.9 
175 3.49e-05 133.382 2.03365e+24 378.23 10619.8 
176 3.51e-05 133.322 2.03527e+24 378.514 10636.2 
177 3.53e-05 133.388 2.02885e+24 379.487 10629.9 
178 3.55e-05 133.444 2.02208e+24 380.075 10610.9 
179 3.57e-05 133.406 2.02145e+24 380.823 10628.4 
180 3.59e-05 133.22 2.00786e+24 383.908 10642.5 
181 3.61e-05 133.278 2.00843e+24 384.263 10655.4 
182 3.63e-05 133.203 1.9971e+24 385.112 10618.7 
183 3.65e-05 133.146 2.00217e+24 386.026 10670.9 
184 3.67e-05 133.195 2.00208e+24 386.744 10690.2 
185 3.69e-05 133.173 1.99854e+24 386.549 10666 
186 3.71e-05 133.266 1.99899e+24 387.145 10684.9 
187 3.73e-05 133.099 1.98406e+24 388.884 10652.6 
188 3.75e-05 133.143 1.98805e+24 388.99 10677 
189 3.77e-05 133.28 1.99238e+24 389.121 10703.9 
190 3.79e-05 133.029 1.98134e+24 390.083 10670.9 
191 3.81e-05 133.111 1.98317e+24 390.576 10694.2 
192 3.83e-05 133.135 1.98459e+24 391.542 10728.4 
193 3.85e-05 133.002 1.97387e+24 392.209 10688.6 
194 3.87e-05 133.092 1.97462e+24 392.25 10693.7 
195 3.89e-05 133.087 1.9704e+24 393.461 10703.9 
196 3.91e-05 133.081 1.97625e+24 392.532 10710.3 
197 3.93e-05 133.042 1.97311e+24 392.888 10702.9 
198 3.95e-05 133.024 1.96684e+24 393.785 10693.3 
199 3.97e-05 132.94 1.96663e+24 392.97 10670 
200 3.99e-05 133.074 1.96803e+24 394.23 10711.8 
