ITEM: TIMESTEP
100000
ITEM: NUMBER OF CELLS
200
ITEM: BOX BOUNDS pp ss pp
0 0.0001
0 4e-05
0 0.0001
ITEM: CELLS id yc f_rho[1] f_rho[2] f_state[1] f_state[2] 
1 1e-07 151.726 3.54764e+24 211.594 10364 
2 3e-07 151.966 3.55266e+24 210.119 10306.3 
3 5e-07 151.655 3.55627e+24 209.596 10291.1 
4 7e-07 152.107 3.56148e+24 209.471 10300 
5 9e-07 151.94 3.54973e+24 210.159 10299.7 
6 1.1e-06 151.408 3.52775e+24 210.674 10261 
7 1.3e-06 151.183 3.5289e+24 210.991 10279.8 
8 1.5e-06 151.553 3.5177e+24 212.371 10314.2 
9 1.7e-06 150.759 3.49852e+24 213.504 10312.7 
10 1.9e-06 150.435 3.47288e+24 214.365 10278.4 
11 2.1e-06 150.258 3.45952e+24 215.838 10309.3 
12 2.3e-06 150.223 3.45123e+24 216.419 10312.2 
13 2.5e-06 150.168 3.44181e+24 217.052 10314.2 
14 2.7e-06 149.795 3.4188e+24 218.292 10303.8 
15 2.9e-06 149.402 3.40139e+24 219.714 10318 
16 3.1e-06 148.833 3.38272e+24 220.709 10307.9 
17 3.3e-06 148.476 3.36389e+24 221.489 10286.7 
18 3.5e-06 148.327 3.35263e+24 222.201 10285.2 
19 3.7e-06 148.248 3.33123e+24 223.731 10290 
20 3.9e-06 148.122 3.31313e+24 225.161 10299.5 
21 4.1e-06 147.627 3.29994e+24 225.876 10291 
22 4.3e-06 147.901 3.29304e+24 226.851 10313.8 
23 4.5e-06 147.524 3.27595e+24 227.809 10303.7 
24 4.7e-06 147.058 3.25239e+24 229.759 10317.1 
25 4.9e-06 146.6 3.23082e+24 230.636 10287.8 
26 5.1e-06 147.111 3.23528e+24 231.393 10335.8 
27 5.3e-06 146.489 3.21449e+24 232.059 10299 
28 5.5e-06 146.232 3.19962e+24 233.249 10303.9 
29 5.7e-06 146.022 3.17984e+24 234.69 10303.5 
30 5.9e-06 145.982 3.1642e+24 235.533 10289.6 
31 6.1e-06 145.633 3.14081e+24 236.9 10272.8 
32 6.3e-06 145.492 3.13384e+24 237.673 10283.4 
33 6.5e-06 145.11 3.10653e+24 239.303 10263.8 
34 6.7e-06 145.151 3.09266e+24 240.977 10289.4 
35 6.9e-06 144.914 3.08959e+24 241.272 10291.8 
36 7.1e-06 144.955 3.07726e+24 242.141 10287.7 
37 7.3e-06 144.673 3.06498e+24 243.304 10295.8 
38 7.5e-06 144.945 3.06463e+24 244.422 10342 
39 7.7e-06 144.506 3.0473e+24 245.017 10308.5 
40 7.9e-06 144.272 3.03251e+24 245.862 10293.8 
41 8.1e-06 144.287 3.02391e+24 247.204 10320.7 
42 8.3e-06 144.188 3.00911e+24 247.442 10280 
43 8.5e-06 143.981 2.99428e+24 249.147 10299.8 
44 8.7e-06 143.888 2.9773e+24 250.149 10282.7 
45 8.9e-06 143.737 2.97268e+24 251.016 10302.3 
46 9.1e-06 143.673 2.96647e+24 251.9 10316.9 
47 9.3e-06 143.614 2.94588e+24 253.301 10302.3 
48 9.5e-06 143.277 2.9248e+24 254.531 10278.3 
49 9.7e-06 143.213 2.92469e+24 255.341 10310.6 
50 9.9e-06 143.144 2.91011e+24 256.431 10303 
51 1.01e-05 143.049 2.89768e+24 257.542 10303.5 
52 1.03e-05 143.2 2.89037e+24 258.844 10329.4 
53 1.05e-05 143.023 2.87953e+24 259.058 10299.2 
54 1.07e-05 142.798 2.86223e+24 260.22 10283.2 
55 1.09e-05 143.011 2.86512e+24 260.985 10323.9 
56 1.11e-05 142.566 2.84513e+24 262.172 10298.4 
57 1.13e-05 142.491 2.83414e+24 263.167 10297.6 
58 1.15e-05 142.474 2.82517e+24 263.97 10296.3 
59 1.17e-05 142.499 2.81647e+24 264.682 10292.3 
60 1.19e-05 142.253 2.81301e+24 265.178 10298.9 
61 1.21e-05 142.306 2.80354e+24 265.793 10288 
62 1.23e-05 142.014 2.78592e+24 267.942 10306 
63 1.25e-05 142.086 2.77331e+24 268.506 10281 
64 1.27e-05 141.99 2.75723e+24 270.154 10284.1 
65 1.29e-05 141.789 2.74755e+24 271.266 10290.2 
66 1.31e-05 141.73 2.74211e+24 272.003 10297.7 
67 1.33e-05 141.776 2.73265e+24 272.862 10294.6 
68 1.35e-05 141.588 2.72738e+24 273.475 10297.9 
69 1.37e-05 141.399 2.70754e+24 275.469 10297.5 
70 1.39e-05 141.426 2.70153e+24 275.905 10290.9 
71 1.41e-05 141.305 2.69017e+24 276.542 10271.3 
72 1.43e-05 141.143 2.68235e+24 277.815 10288.5 
73 1.45e-05 141.131 2.68173e+24 278.368 10306.6 
74 1.47e-05 141.007 2.66522e+24 279.63 10289.6 
75 1.49e-05 140.915 2.6516e+24 280.992 10286.9 
76 1.51e-05 140.934 2.64413e+24 282.198 10302 
77 1.53e-05 140.683 2.6331e+24 283.57 10308.9 
78 1.55e-05 140.725 2.62663e+24 283.552 10282.9 
79 1.57e-05 140.794 2.62588e+24 284.503 10314.4 
80 1.59e-05 140.531 2.60883e+24 285.934 10299 
81 1.61e-05 140.466 2.60741e+24 286.479 10313 
82 1.63e-05 140.614 2.60426e+24 287.215 10327 
83 1.65e-05 140.41 2.59342e+24 287.609 10298.1 
84 1.67e-05 140.522 2.5873e+24 288.33 10299.6 
85 1.69e-05 140.493 2.57746e+24 290.119 10324.1 
86 1.71e-05 140.166 2.56355e+24 290.238 10272.6 
87 1.73e-05 140.213 2.55107e+24 291.67 10273 
88 1.75e-05 140.042 2.54858e+24 292.088 10277.7 
89 1.77e-05 139.976 2.53505e+24 293.804 10283.2 
90 1.79e-05 139.923 2.52724e+24 295.02 10293.9 
91 1.81e-05 139.888 2.5256e+24 295.157 10292 
92 1.83e-05 139.999 2.51794e+24 296.32 10301.2 
93 1.85e-05 139.701 2.5079e+24 296.377 10262.1 
94 1.87e-05 139.74 2.50339e+24 298.111 10303.6 
95 1.89e-05 139.607 2.49281e+24 298.631 10278 
96 1.91e-05 139.642 2.49256e+24 299.159 10295.1 
97 1.93e-05 139.601 2.48235e+24 300.329 10293 
98 1.95e-05 139.672 2.48073e+24 301.24 10317.5 
99 1.97e-05 139.542 2.46836e+24 301.666 10280.6 
100 1.99e-05 139.397 2.45645e+24 303.288 10286 
101 2.01e-05 139.451 2.45248e+24 304.257 10302.2 
102 2.03e-05 139.418 2.44291e+24 304.759 10278.9 
103 2.05e-05 139.084 2.43369e+24 305.454 10263.5 
104 2.07e-05 139.154 2.42972e+24 306.075 10267.6 
105 2.09e-05 139.11 2.42323e+24 307.48 10287.1 
106 2.11e-05 139.009 2.41443e+24 308.877 10296.3 
107 2.13e-05 138.99 2.40935e+24 309.73 10303.1 
108 2.15e-05 138.923 2.3962e+24 310.803 10282.3 
109 2.17e-05 138.994 2.39769e+24 311.078 10297.8 
110 2.19e-05 138.825 2.38379e+24 312.256 10276.9 
111 2.21e-05 138.871 2.38221e+24 312.736 10285.9 
112 2.23e-05 138.808 2.37575e+24 313.515 10283.5 
113 2.25e-05 138.669 2.36668e+24 315.056 10294.6 
114 2.27e-05 138.776 2.36155e+24 315.625 10290.9 
115 2.29e-05 138.661 2.35453e+24 317.062 10307 
116 2.31e-05 138.613 2.34927e+24 317.173 10287.6 
117 2.33e-05 138.541 2.34455e+24 317.214 10268.2 
118 2.35e-05 138.628 2.34238e+24 318.784 10309.5 
119 2.37e-05 138.481 2.33891e+24 319.746 10325.3 
120 2.39e-05 138.58 2.33173e+24 320.594 10320.9 
121 2.41e-05 138.367 2.32298e+24 321.61 10314.8 
122 2.43e-05 138.325 2.31533e+24 322.22 10300.3 
123 2.45e-05 138.135 2.30764e+24 322.607 10278.4 
124 2.47e-05 138.233 2.30853e+24 324.185 10332.6 
125 2.49e-05 138.202 2.30064e+24 324.285 10300.5 
126 2.51e-05 138.132 2.2959e+24 324.553 10287.8 
127 2.53e-05 138.056 2.2858e+24 325.42 10269.9 
128 2.55e-05 138.132 2.27446e+24 327.361 10279.9 
129 2.57e-05 137.922 2.26669e+24 328.324 10274.9 
130 2.59e-05 137.933 2.26247e+24 329.104 10280.2 
131 2.61e-05 137.916 2.26621e+24 329.214 10300.6 
132 2.63e-05 137.842 2.25624e+24 331.284 10319.7 
133 2.65e-05 137.783 2.25128e+24 331.601 10306.9 
134 2.67e-05 137.623 2.24579e+24 332.039 10295.4 
135 2.69e-05 137.757 2.23589e+24 332.913 10277 
136 2.71e-05 137.804 2.2297e+24 333.521 10267.2 
137 2.73e-05 137.828 2.23526e+24 334.694 10329 
138 2.75e-05 137.71 2.22473e+24 336.405 10332.9 
139 2.77e-05 137.775 2.2202e+24 337.076 10332.4 
140 2.79e-05 137.607 2.2101e+24 337.568 10300.5 
141 2.81e-05 137.56 2.20856e+24 338.353 10317.2 
142 2.83e-05 137.531 2.20217e+24 338.051 10278.2 
143 2.85e-05 137.465 2.19618e+24 340.487 10324.1 
144 2.87e-05 137.279 2.18998e+24 340.876 10306.7 
145 2.89e-05 137.242 2.18469e+24 341.697 10306.6 
146 2.91e-05 137.237 2.17667e+24 343.165 10312.9 
147 2.93e-05 137.229 2.17038e+24 343.94 10306.3 
148 2.95e-05 137.412 2.17137e+24 344.303 10321.9 
149 2.97e-05 137.123 2.16066e+24 345.731 10313.6 
150 2.99e-05 137.238 2.15503e+24 345.978 10294.1 
151 3.01e-05 136.999 2.14535e+24 347.036 10279.1 
152 3.03e-05 137.079 2.14412e+24 347.985 10301.3 
153 3.05e-05 137.054 2.13831e+24 348.757 10296.2 
154 3.07e-05 137.121 2.13678e+24 349.728 10317.4 
155 3.09e-05 136.907 2.13039e+24 349.659 10284.6 
156 3.11e-05 137.128 2.13321e+24 349.623 10297.2 
157 3.13e-05 136.865 2.12247e+24 350.961 10284.5 
158 3.15e-05 136.905 2.12555e+24 349.976 10270.5 
159 3.17e-05 136.871 2.11393e+24 351.839 10268.8 
160 3.19e-05 136.696 2.10232e+24 353.469 10259.7 
161 3.21e-05 136.772 2.10074e+24 354.216 10273.6 
162 3.23e-05 136.611 2.09355e+24 355.744 10282.7 
163 3.25e-05 136.642 2.09205e+24 355.643 10272.3 
164 3.27e-05 136.674 2.09252e+24 355.686 10275.9 
165 3.29e-05 136.678 2.08524e+24 357.299 10286.6 
166 3.31e-05 136.503 2.08015e+24 357.98 10281 
167 3.33e-05 136.638 2.07047e+24 359.548 10278 
168 3.35e-05 136.394 2.06936e+24 360.305 10294.1 
169 3.37e-05 136.532 2.06586e+24 361.24 10303.4 
170 3.39e-05 136.443 2.06634e+24 361.347 10308.8 
171 3.41e-05 136.4 2.06012e+24 362.871 10321.2 
172 3.43e-05 136.357 2.05397e+24 363.08 10296.2 
173 3.45e-05 136.373 2.05155e+24 363.598 10298.8 
174 3.47e-05 136.383 2.04573e+24 365.323 10318.3 
175 3.49e-05 136.153 2.03866e+24 365.66 10292.1 
176 3.51e-05 136.266 2.03811e+24 366.513 10313.4 
177 3.53e-05 136.112 2.03255e+24 366.633 10288.6 
178 3.55e-05 135.976 2.02327e+24 368.379 10290.4 
179 3.57e-05 136.027 2.01428e+24 369.169 10266.7 
180 3.59e-05 136.143 2.01606e+24 369.263 10278.3 
181 3.61e-05 136.044 2.01388e+24 369.937 10286 
182 3.63e-05 136.026 2.01403e+24 371.25 10323.2 
183 3.65e-05 136.078 2.00936e+24 371.575 10308.3 
184 3.67e-05 136.241 2.00459e+24 371.62 10285.1 
185 3.69e-05 136.014 1.99622e+24 373.279 10287.9 
186 3.71e-05 135.988 1.9924e+24 375.472 10328.5 
187 3.73e-05 135.807 1.98199e+24 377.027 10317.1 
188 3.75e-05 135.699 1.97613e+24 378.023 10313.8 
189 3.77e-05 135.855 1.97327e+24 378.363 10308.1 
190 3.79e-05 135.625 1.96662e+24 379.684 10309.2 
191 3.81e-05 135.697 1.96039e+24 381.227 10318.3 
192 3.83e-05 135.741 1.95874e+24 381.626 10320.4 
193 3.85e-05 135.557 1.94492e+24 383.819 10306.5 
194 3.87e-05 135.545 1.93836e+24 385.933 10328.3 
195 3.89e-05 135.389 1.92621e+24 387.605 10308.1 
196 3.91e-05 135.458 1.91826e+24 389.251 10309.1 
197 3.93e-05 135.392 1.90908e+24 390.853 10302 
198 3.95e-05 135.36 1.90411e+24 391.531 10293 
199 3.97e-05 135.324 1.90166e+24 393.805 10339.5 
200 3.99e-05 135.163 1.88965e+24 398.172 10388.1 
