ITEM: TIMESTEP
200000
ITEM: NUMBER OF CELLS
200
ITEM: BOX BOUNDS pp ss pp
0 0.0001
0 4e-05
0 0.0001
ITEM: CELLS id yc f_rho[1] f_rho[2] f_state[1] f_state[2] 
1 1e-07 141.394 3.72304e+24 209.419 10764.6 
2 3e-07 141.044 3.69111e+24 211.233 10764.7 
3 5e-07 140.774 3.6615e+24 212.916 10763.4 
4 7e-07 140.669 3.62354e+24 215.223 10767.3 
5 9e-07 140.564 3.60528e+24 216.639 10783.5 
6 1.1e-06 140.339 3.57092e+24 218.167 10756 
7 1.3e-06 140.255 3.55043e+24 219.824 10775.5 
8 1.5e-06 140.12 3.52158e+24 221.517 10770.3 
9 1.7e-06 140.032 3.50319e+24 222.925 10782.2 
10 1.9e-06 139.89 3.4847e+24 223.992 10776.6 
11 2.1e-06 139.73 3.46273e+24 225.144 10763.7 
12 2.3e-06 139.664 3.4461e+24 226.493 10776.2 
13 2.5e-06 139.569 3.42362e+24 228.08 10780.9 
14 2.7e-06 139.517 3.41049e+24 229.229 10793.7 
15 2.9e-06 139.288 3.38877e+24 230.829 10799.8 
16 3.1e-06 139.228 3.3662e+24 232.095 10786.7 
17 3.3e-06 139.159 3.35015e+24 233.044 10779.2 
18 3.5e-06 139.034 3.33375e+24 234.185 10778.9 
19 3.7e-06 139.013 3.31746e+24 235.265 10775.7 
20 3.9e-06 138.923 3.30384e+24 236.5 10787.8 
21 4.1e-06 138.759 3.28058e+24 237.943 10777.2 
22 4.3e-06 138.661 3.26828e+24 238.432 10758.9 
23 4.5e-06 138.604 3.2508e+24 239.999 10771.7 
24 4.7e-06 138.49 3.23294e+24 241.297 10770.4 
25 4.9e-06 138.476 3.22734e+24 242.345 10798.5 
26 5.1e-06 138.311 3.20791e+24 243.478 10783.6 
27 5.3e-06 138.213 3.19623e+24 244.318 10781.5 
28 5.5e-06 138.124 3.17631e+24 245.462 10764.4 
29 5.7e-06 138.104 3.16512e+24 246.675 10779.5 
30 5.9e-06 137.977 3.14781e+24 248.15 10784.6 
31 6.1e-06 137.896 3.13458e+24 249.306 10789.4 
32 6.3e-06 137.889 3.12566e+24 249.988 10788.1 
33 6.5e-06 137.736 3.10495e+24 251.71 10790.4 
34 6.7e-06 137.602 3.08331e+24 253.067 10773 
35 6.9e-06 137.684 3.07925e+24 253.893 10793.9 
36 7.1e-06 137.399 3.0592e+24 255.185 10778.2 
37 7.3e-06 137.508 3.05153e+24 256.324 10799.2 
38 7.5e-06 137.295 3.03871e+24 257.585 10806.7 
39 7.7e-06 137.373 3.03313e+24 257.985 10803.6 
40 7.9e-06 137.27 3.01838e+24 259.129 10798.8 
41 8.1e-06 137.206 3.00623e+24 260.074 10794.5 
42 8.3e-06 137.083 2.98986e+24 260.82 10766.5 
43 8.5e-06 136.932 2.96937e+24 262.155 10747.5 
44 8.7e-06 136.961 2.96425e+24 262.806 10755.6 
45 8.9e-06 136.818 2.9517e+24 264.012 10759.2 
46 9.1e-06 136.808 2.93911e+24 265.351 10767.6 
47 9.3e-06 136.698 2.92251e+24 266.644 10759 
48 9.5e-06 136.707 2.91552e+24 267.702 10775.8 
49 9.7e-06 136.637 2.90995e+24 268.654 10793.5 
50 9.9e-06 136.511 2.89542e+24 269.708 10781.8 
51 1.01e-05 136.536 2.88819e+24 270.362 10780.9 
52 1.03e-05 136.456 2.87449e+24 271.291 10766.6 
53 1.05e-05 136.38 2.86416e+24 272.103 10760 
54 1.07e-05 136.297 2.8507e+24 273.543 10766.1 
55 1.09e-05 136.233 2.84233e+24 274.322 10765.1 
56 1.11e-05 136.064 2.82577e+24 276.152 10773.8 
57 1.13e-05 136.123 2.81457e+24 276.753 10754.4 
58 1.15e-05 136.051 2.80724e+24 277.522 10756.2 
59 1.17e-05 136.025 2.80304e+24 278.417 10774.8 
60 1.19e-05 135.957 2.79224e+24 279.591 10778.5 
61 1.21e-05 135.901 2.78013e+24 280.58 10769.7 
62 1.23e-05 135.809 2.77155e+24 282.118 10795.3 
63 1.25e-05 135.753 2.76468e+24 282.498 10783.1 
64 1.27e-05 135.687 2.75353e+24 283.84 10790.6 
65 1.29e-05 135.679 2.74558e+24 284.628 10789.3 
66 1.31e-05 135.598 2.73422e+24 285.587 10780.9 
67 1.33e-05 135.628 2.72769e+24 286.045 10772.4 
68 1.35e-05 135.519 2.71602e+24 287.39 10776.8 
69 1.37e-05 135.391 2.70062e+24 288.962 10774.3 
70 1.39e-05 135.393 2.6949e+24 289.709 10779.2 
71 1.41e-05 135.337 2.6864e+24 290.863 10788 
72 1.43e-05 135.299 2.68135e+24 291.439 10789.1 
73 1.45e-05 135.225 2.6709e+24 292.208 10775.4 
74 1.47e-05 135.217 2.65937e+24 293.257 10767.4 
75 1.49e-05 135.043 2.64664e+24 294.801 10772.3 
76 1.51e-05 135.043 2.64125e+24 295.842 10788.3 
77 1.53e-05 134.957 2.63019e+24 296.358 10761.8 
78 1.55e-05 134.967 2.61961e+24 298.124 10782.4 
79 1.57e-05 134.829 2.61132e+24 299.07 10782.4 
80 1.59e-05 134.834 2.60354e+24 300.116 10787.9 
81 1.61e-05 134.863 2.5991e+24 300.628 10787.9 
82 1.63e-05 134.759 2.59119e+24 301.245 10777.1 
83 1.65e-05 134.663 2.57774e+24 302.134 10752.8 
84 1.67e-05 134.584 2.56766e+24 303.265 10750.9 
85 1.69e-05 134.57 2.55934e+24 304.218 10749.7 
86 1.71e-05 134.549 2.55368e+24 305.214 10761 
87 1.73e-05 134.496 2.54727e+24 306.081 10764.5 
88 1.75e-05 134.472 2.54246e+24 306.763 10768.1 
89 1.77e-05 134.367 2.5328e+24 308.198 10777.4 
90 1.79e-05 134.365 2.52334e+24 309.204 10772.2 
91 1.81e-05 134.183 2.50947e+24 310.659 10763.4 
92 1.83e-05 134.261 2.50738e+24 311.043 10767.7 
93 1.85e-05 134.21 2.49832e+24 312.33 10773.2 
94 1.87e-05 134.196 2.49286e+24 313.013 10773.2 
95 1.89e-05 134.179 2.48798e+24 313.458 10767.4 
96 1.91e-05 134.081 2.47791e+24 314.723 10767.1 
97 1.93e-05 134.064 2.473e+24 315.446 10770.4 
98 1.95e-05 133.953 2.46497e+24 316.459 10769.9 
99 1.97e-05 134.065 2.46215e+24 316.748 10767.4 
100 1.99e-05 133.914 2.45327e+24 317.876 10766.8 
101 2.01e-05 133.912 2.44704e+24 318.848 10772.3 
102 2.03e-05 133.845 2.43714e+24 319.795 10760.6 
103 2.05e-05 133.786 2.43136e+24 320.707 10765.7 
104 2.07e-05 133.739 2.42475e+24 321.654 10768.1 
105 2.09e-05 133.807 2.42559e+24 322.153 10788.5 
106 2.11e-05 133.622 2.41142e+24 323.527 10771.3 
107 2.13e-05 133.585 2.40207e+24 324.203 10751.9 
108 2.15e-05 133.631 2.40094e+24 325.331 10784.2 
109 2.17e-05 133.557 2.39297e+24 326.278 10779.7 
110 2.19e-05 133.52 2.38812e+24 326.841 10776.5 
111 2.21e-05 133.539 2.38474e+24 327.668 10788.4 
112 2.23e-05 133.452 2.37651e+24 328.794 10788.2 
113 2.25e-05 133.416 2.36934e+24 329.913 10792.2 
114 2.27e-05 133.311 2.35867e+24 331.16 10784.2 
115 2.29e-05 133.403 2.35686e+24 331.483 10786.4 
116 2.31e-05 133.273 2.34745e+24 332.874 10788.4 
117 2.33e-05 133.253 2.33797e+24 333.593 10768.1 
118 2.35e-05 133.178 2.33038e+24 334.609 10765.8 
119 2.37e-05 133.159 2.32552e+24 336.061 10790 
120 2.39e-05 133.173 2.32187e+24 336.216 10778 
121 2.41e-05 133.076 2.31764e+24 337.451 10797.9 
122 2.43e-05 133.05 2.30749e+24 338.163 10773.3 
123 2.45e-05 133.021 2.30416e+24 339.015 10784.9 
124 2.47e-05 133.048 2.29987e+24 339.951 10794.5 
125 2.49e-05 132.941 2.29038e+24 340.683 10773.1 
126 2.51e-05 133.022 2.28852e+24 341.479 10789.5 
127 2.53e-05 132.876 2.27686e+24 342.594 10769.6 
128 2.55e-05 132.882 2.27669e+24 343.728 10804.4 
129 2.57e-05 132.851 2.27077e+24 343.889 10781.4 
130 2.59e-05 132.743 2.2643e+24 344.937 10783.4 
131 2.61e-05 132.757 2.25907e+24 346.162 10796.7 
132 2.63e-05 132.66 2.25115e+24 346.994 10784.7 
133 2.65e-05 132.687 2.2479e+24 347.56 10786.7 
134 2.67e-05 132.602 2.24094e+24 348.28 10775.6 
135 2.69e-05 132.573 2.23607e+24 349.17 10779.7 
136 2.71e-05 132.59 2.23265e+24 349.988 10788.4 
137 2.73e-05 132.479 2.22733e+24 350.733 10785.6 
138 2.75e-05 132.553 2.21985e+24 352.352 10799 
139 2.77e-05 132.435 2.2138e+24 352.776 10782.5 
140 2.79e-05 132.455 2.20893e+24 353.468 10779.9 
141 2.81e-05 132.434 2.20427e+24 354.537 10789.7 
142 2.83e-05 132.415 2.19965e+24 355.339 10791.4 
143 2.85e-05 132.365 2.19516e+24 355.795 10783.2 
144 2.87e-05 132.38 2.18834e+24 356.818 10780.6 
145 2.89e-05 132.278 2.18153e+24 358.159 10787.5 
146 2.91e-05 132.355 2.18188e+24 358.298 10793.4 
147 2.93e-05 132.203 2.17586e+24 359.482 10799.2 
148 2.95e-05 132.206 2.16803e+24 360.772 10798.9 
149 2.97e-05 132.174 2.16603e+24 361.111 10799.1 
150 2.99e-05 132.114 2.1573e+24 362.43 10794.9 
151 3.01e-05 132.077 2.15342e+24 362.58 10779.9 
152 3.03e-05 132.029 2.14682e+24 363.59 10776.8 
153 3.05e-05 132.074 2.14444e+24 364.491 10791.6 
154 3.07e-05 131.956 2.13431e+24 365.757 10777.9 
155 3.09e-05 131.954 2.12813e+24 366.985 10782.8 
156 3.11e-05 131.987 2.12856e+24 367.084 10787.9 
157 3.13e-05 131.86 2.12081e+24 367.518 10761.3 
158 3.15e-05 131.911 2.11634e+24 368.852 10777.6 
159 3.17e-05 131.796 2.108e+24 369.661 10758.6 
160 3.19e-05 131.837 2.10841e+24 370.697 10790.9 
161 3.21e-05 131.779 2.10389e+24 371.561 10792.8 
162 3.23e-05 131.8 2.1e+24 372.602 10803.1 
163 3.25e-05 131.748 2.09404e+24 373.283 10792.1 
164 3.27e-05 131.71 2.09322e+24 373.872 10804.9 
165 3.29e-05 131.775 2.09154e+24 374.551 10815.9 
166 3.31e-05 131.673 2.0837e+24 374.601 10776.7 
167 3.33e-05 131.585 2.07637e+24 375.816 10773.6 
168 3.35e-05 131.606 2.07148e+24 377.039 10783.2 
169 3.37e-05 131.514 2.06705e+24 377.613 10776.6 
170 3.39e-05 131.558 2.06257e+24 378.382 10775.1 
171 3.41e-05 131.473 2.05872e+24 379.627 10790.4 
172 3.43e-05 131.48 2.05313e+24 380.989 10799.7 
173 3.45e-05 131.516 2.05137e+24 381.106 10793.8 
174 3.47e-05 131.454 2.04548e+24 382.256 10795.2 
175 3.49e-05 131.355 2.03613e+24 383.053 10768.3 
176 3.51e-05 131.301 2.02973e+24 384.618 10778.3 
177 3.53e-05 131.319 2.02665e+24 385.538 10787.7 
178 3.55e-05 131.321 2.02348e+24 386.197 10789.2 
179 3.57e-05 131.286 2.01977e+24 386.971 10791 
180 3.59e-05 131.271 2.01976e+24 387.59 10808.3 
181 3.61e-05 131.3 2.01839e+24 387.173 10789.3 
182 3.63e-05 131.15 2.01118e+24 388.335 10783 
183 3.65e-05 131.249 2.00929e+24 389.009 10791.6 
184 3.67e-05 131.117 2.0025e+24 390.529 10797.2 
185 3.69e-05 131.168 2.00207e+24 391.112 10811 
186 3.71e-05 131.034 1.9942e+24 391.092 10767.9 
187 3.73e-05 131.178 1.99908e+24 391.142 10795.6 
188 3.75e-05 131.045 1.99433e+24 391.74 10786.4 
189 3.77e-05 131.1 1.99315e+24 391.939 10785.5 
190 3.79e-05 130.976 1.9849e+24 393.43 10781.8 
191 3.81e-05 130.992 1.98523e+24 393.471 10784.7 
192 3.83e-05 131.059 1.98581e+24 394.108 10805.3 
193 3.85e-05 131.049 1.98308e+24 395.159 10819.2 
194 3.87e-05 130.989 1.98269e+24 395.274 10820.2 
195 3.89e-05 130.989 1.98039e+24 395.229 10806.4 
196 3.91e-05 131.076 1.98084e+24 395.346 10812.1 
197 3.93e-05 130.967 1.97754e+24 395.985 10811.5 
198 3.95e-05 130.991 1.97647e+24 396.249 10812.8 
199 3.97e-05 131.094 1.97758e+24 396.515 10826.2 
200 3.99e-05 131.116 1.97334e+24 396.883 10813 
