ITEM: TIMESTEP
100000
ITEM: NUMBER OF CELLS
200
ITEM: BOX BOUNDS pp ss pp
0 0.0001
0 4e-05
0 0.0001
ITEM: CELLS id yc f_rho[1] f_rho[2] f_state[1] f_state[2] 
1 1e-07 133.873 3.85517e+24 216.203 11507.7 
2 3e-07 133.231 3.76051e+24 221.409 11495.5 
3 5e-07 133.296 3.71612e+24 223.973 11491.3 
4 7e-07 132.466 3.65636e+24 226.249 11421.4 
5 9e-07 132.389 3.64216e+24 227.61 11445.5 
6 1.1e-06 132.502 3.60315e+24 228.966 11390.3 
7 1.3e-06 132.089 3.57982e+24 231.177 11425.9 
8 1.5e-06 132.042 3.55475e+24 231.896 11381.2 
9 1.7e-06 132.079 3.53944e+24 233.727 11421.6 
10 1.9e-06 132.05 3.51421e+24 235.299 11416.5 
11 2.1e-06 131.639 3.49211e+24 236.423 11398.8 
12 2.3e-06 131.992 3.49982e+24 237.394 11470.9 
13 2.5e-06 131.528 3.47212e+24 238.285 11422.8 
14 2.7e-06 131.541 3.46627e+24 238.982 11437 
15 2.9e-06 131.567 3.45042e+24 240.271 11446.1 
16 3.1e-06 131.452 3.45059e+24 241.688 11514.1 
17 3.3e-06 131.262 3.42156e+24 242.775 11468.6 
18 3.5e-06 130.944 3.39153e+24 244.516 11449.5 
19 3.7e-06 130.856 3.38287e+24 245.152 11450 
20 3.9e-06 130.992 3.36974e+24 247.083 11495.4 
21 4.1e-06 130.773 3.35725e+24 248.586 11522.4 
22 4.3e-06 130.873 3.32367e+24 250.671 11502.8 
23 4.5e-06 130.545 3.31434e+24 251.339 11501.1 
24 4.7e-06 130.539 3.30257e+24 252.309 11504.5 
25 4.9e-06 130.36 3.27414e+24 253.638 11465.5 
26 5.1e-06 130.222 3.24954e+24 256.013 11486 
27 5.3e-06 129.802 3.23081e+24 257.515 11486.7 
28 5.5e-06 129.964 3.21417e+24 258.269 11461.1 
29 5.7e-06 129.961 3.20802e+24 259.538 11495.3 
30 5.9e-06 129.71 3.18865e+24 261.049 11492.4 
31 6.1e-06 129.661 3.18153e+24 261.415 11482.8 
32 6.3e-06 129.629 3.15955e+24 262.85 11466.1 
33 6.5e-06 129.43 3.14636e+24 264.104 11472.7 
34 6.7e-06 129.298 3.12542e+24 265.811 11470 
35 6.9e-06 129.361 3.11896e+24 266.458 11474.2 
36 7.1e-06 129.259 3.10647e+24 267.303 11464.5 
37 7.3e-06 128.987 3.0789e+24 268.374 11408.3 
38 7.5e-06 128.919 3.0729e+24 269.922 11451.7 
39 7.7e-06 128.982 3.06074e+24 271.738 11483.1 
40 7.9e-06 128.845 3.0618e+24 272.948 11538.3 
41 8.1e-06 128.846 3.03312e+24 274.206 11482.9 
42 8.3e-06 128.864 3.02469e+24 275.09 11487.9 
43 8.5e-06 128.482 2.99397e+24 276.218 11417.8 
44 8.7e-06 128.405 2.97767e+24 277.155 11394.2 
45 8.9e-06 128.386 2.95825e+24 278.767 11385.7 
46 9.1e-06 128.024 2.94053e+24 280.057 11369.9 
47 9.3e-06 128.2 2.9411e+24 280.058 11372.1 
48 9.5e-06 127.827 2.9396e+24 281.743 11434.7 
49 9.7e-06 128.276 2.91819e+24 283.489 11421.8 
50 9.9e-06 128.538 2.90862e+24 284.85 11439 
51 1.01e-05 128.073 2.88827e+24 286.568 11427.4 
52 1.03e-05 127.882 2.8826e+24 286.995 11422 
53 1.05e-05 128.237 2.88484e+24 288.373 11485.8 
54 1.07e-05 127.775 2.86094e+24 289.911 11451.3 
55 1.09e-05 127.783 2.85007e+24 292.198 11497.8 
56 1.11e-05 127.95 2.84639e+24 292.963 11513 
57 1.13e-05 127.545 2.82314e+24 294.339 11472.6 
58 1.15e-05 127.096 2.81317e+24 295.252 11467.6 
59 1.17e-05 127.109 2.79433e+24 297.479 11476.7 
60 1.19e-05 127.535 2.78469e+24 298.238 11466.3 
61 1.21e-05 127.315 2.78422e+24 298.362 11469.1 
62 1.23e-05 126.87 2.77414e+24 300.247 11499.8 
63 1.25e-05 127.118 2.75556e+24 301.301 11462.9 
64 1.27e-05 126.882 2.73346e+24 303.094 11438.6 
65 1.29e-05 126.994 2.71218e+24 305.045 11422.6 
66 1.31e-05 126.754 2.70827e+24 305.462 11421.8 
67 1.33e-05 126.388 2.70172e+24 305.816 11407.3 
68 1.35e-05 126.638 2.69661e+24 307.084 11433 
69 1.37e-05 126.675 2.69294e+24 308.089 11454.7 
70 1.39e-05 126.556 2.68013e+24 309.211 11441.8 
71 1.41e-05 126.758 2.67293e+24 309.914 11437 
72 1.43e-05 126.429 2.66296e+24 311.125 11438.9 
73 1.45e-05 126.504 2.6505e+24 312.394 11431.8 
74 1.47e-05 126.379 2.63303e+24 313.744 11405.5 
75 1.49e-05 126.123 2.62912e+24 314.727 11424.3 
76 1.51e-05 126.266 2.62291e+24 315.498 11425.2 
77 1.53e-05 126.183 2.61823e+24 316.269 11432.6 
78 1.55e-05 125.913 2.61451e+24 317.982 11478.3 
79 1.57e-05 126.069 2.60286e+24 318.986 11463.2 
80 1.59e-05 125.89 2.58561e+24 320.804 11452.1 
81 1.61e-05 125.715 2.59132e+24 321.248 11493.3 
82 1.63e-05 126.286 2.59392e+24 321.149 11501.3 
83 1.65e-05 125.878 2.57716e+24 321.837 11451.4 
84 1.67e-05 125.896 2.57106e+24 322.245 11438.8 
85 1.69e-05 125.704 2.56181e+24 323.199 11431.4 
86 1.71e-05 125.739 2.54844e+24 324.413 11414.5 
87 1.73e-05 125.803 2.55238e+24 325.442 11468.4 
88 1.75e-05 125.824 2.552e+24 325.923 11483.6 
89 1.77e-05 125.691 2.54393e+24 326.05 11451.8 
90 1.79e-05 125.658 2.52896e+24 327.625 11439.4 
91 1.81e-05 125.59 2.52272e+24 329.434 11474.1 
92 1.83e-05 125.483 2.51735e+24 330.744 11495.3 
93 1.85e-05 125.703 2.49732e+24 332.308 11457.7 
94 1.87e-05 125.1 2.49519e+24 332.66 11460.1 
95 1.89e-05 125.445 2.48651e+24 333.347 11443.8 
96 1.91e-05 125.337 2.47196e+24 335.531 11451.3 
97 1.93e-05 125.292 2.46717e+24 335.447 11426.3 
98 1.95e-05 125.42 2.45447e+24 336.196 11392.9 
99 1.97e-05 125.163 2.44792e+24 336.891 11386 
100 1.99e-05 125.057 2.44656e+24 338.375 11429.8 
101 2.01e-05 125.303 2.44466e+24 339.184 11448.2 
102 2.03e-05 124.732 2.43202e+24 341.129 11454.3 
103 2.05e-05 125.039 2.42827e+24 342.079 11468.5 
104 2.07e-05 124.67 2.42341e+24 342.926 11473.9 
105 2.09e-05 125.036 2.40937e+24 343.714 11433.6 
106 2.11e-05 124.804 2.40191e+24 345.151 11445.9 
107 2.13e-05 124.837 2.3899e+24 346.313 11427 
108 2.15e-05 124.984 2.39399e+24 347.507 11486 
109 2.17e-05 125.03 2.39323e+24 348.377 11511.1 
110 2.19e-05 124.548 2.38408e+24 349.116 11491.4 
111 2.21e-05 124.51 2.37351e+24 350.811 11496 
112 2.23e-05 124.589 2.36323e+24 351.029 11453.4 
113 2.25e-05 124.784 2.37182e+24 352.193 11533.1 
114 2.27e-05 124.716 2.36718e+24 352.893 11533.4 
115 2.29e-05 124.571 2.35292e+24 353.338 11478.4 
116 2.31e-05 124.496 2.34051e+24 355.187 11477.6 
117 2.33e-05 124.555 2.3363e+24 355.434 11464.9 
118 2.35e-05 124.764 2.3358e+24 356.04 11482 
119 2.37e-05 124.236 2.32014e+24 356.646 11424.4 
120 2.39e-05 124.162 2.31167e+24 357.484 11409.4 
121 2.41e-05 124.119 2.30604e+24 359.364 11441.5 
122 2.43e-05 124.354 2.30224e+24 360.577 11461.2 
123 2.45e-05 124.049 2.29663e+24 360.825 11441.2 
124 2.47e-05 123.894 2.27789e+24 363.528 11432.8 
125 2.49e-05 123.993 2.27707e+24 362.873 11408.1 
126 2.51e-05 124.072 2.26442e+24 363.381 11360.6 
127 2.53e-05 123.902 2.26006e+24 364.66 11378.7 
128 2.55e-05 123.734 2.25655e+24 366.018 11403.3 
129 2.57e-05 124.233 2.2574e+24 367.534 11454.9 
130 2.59e-05 123.536 2.2566e+24 367.761 11457.9 
131 2.61e-05 123.86 2.24639e+24 369.336 11454.9 
132 2.63e-05 123.908 2.2522e+24 370.257 11513.1 
133 2.65e-05 123.998 2.23781e+24 370.381 11443.4 
134 2.67e-05 123.753 2.23359e+24 370.828 11435.6 
135 2.69e-05 123.96 2.22471e+24 371.999 11426.1 
136 2.71e-05 123.579 2.21689e+24 372.953 11415.2 
137 2.73e-05 123.624 2.22003e+24 374.002 11463.5 
138 2.75e-05 123.523 2.21952e+24 374.924 11489.1 
139 2.77e-05 123.502 2.20271e+24 377.11 11468.6 
140 2.79e-05 123.409 2.18659e+24 378.87 11437.8 
141 2.81e-05 123.692 2.19291e+24 378.828 11469.5 
142 2.83e-05 123.622 2.1961e+24 379.136 11495.6 
143 2.85e-05 123.319 2.18451e+24 379.936 11459.1 
144 2.87e-05 123.427 2.17466e+24 381.814 11463.7 
145 2.89e-05 123.382 2.1693e+24 381.993 11440.9 
146 2.91e-05 123.02 2.1606e+24 383.523 11440.6 
147 2.93e-05 123.374 2.14471e+24 384.783 11393.7 
148 2.95e-05 123.168 2.13953e+24 386.545 11418.3 
149 2.97e-05 123.001 2.12949e+24 387.317 11387.4 
150 2.99e-05 123.358 2.12481e+24 388.331 11392.1 
151 3.01e-05 122.999 2.12566e+24 389.095 11419.1 
152 3.03e-05 123.261 2.12849e+24 390.022 11461.6 
153 3.05e-05 123.011 2.1139e+24 391.338 11421.4 
154 3.07e-05 122.74 2.10662e+24 393.314 11439.6 
155 3.09e-05 122.953 2.11436e+24 393.303 11481.2 
156 3.11e-05 123.066 2.10492e+24 394.031 11451.2 
157 3.13e-05 122.947 2.09105e+24 395.653 11422.5 
158 3.15e-05 122.898 2.08821e+24 396.041 11418.2 
159 3.17e-05 122.832 2.08265e+24 397.933 11442.2 
160 3.19e-05 122.446 2.07849e+24 398.037 11422.3 
161 3.21e-05 122.739 2.07512e+24 399.241 11438.3 
162 3.23e-05 122.566 2.06869e+24 399.765 11417.8 
163 3.25e-05 122.492 2.06492e+24 400.66 11422.5 
164 3.27e-05 122.34 2.05129e+24 402.559 11400.9 
165 3.29e-05 122.887 2.05991e+24 402.801 11455.7 
166 3.31e-05 122.883 2.06332e+24 404.668 11527.9 
167 3.33e-05 122.677 2.05959e+24 404.263 11495.5 
168 3.35e-05 122.837 2.04384e+24 406.078 11458.8 
169 3.37e-05 122.445 2.03075e+24 407.814 11434.1 
170 3.39e-05 122.541 2.03554e+24 408.709 11486.2 
171 3.41e-05 122.421 2.03303e+24 409.759 11501.5 
172 3.43e-05 122.646 2.03553e+24 409.777 11516.2 
173 3.45e-05 122.332 2.01685e+24 410.887 11441.4 
174 3.47e-05 122.373 2.01491e+24 411.837 11456.8 
175 3.49e-05 122.225 2.01378e+24 411.749 11447.9 
176 3.51e-05 122.231 2.00621e+24 413.869 11463.7 
177 3.53e-05 122.388 2.00054e+24 414.988 11462.1 
178 3.55e-05 122.361 1.99681e+24 415.751 11461.8 
179 3.57e-05 122.598 1.99362e+24 417.916 11503.1 
180 3.59e-05 122.199 1.99516e+24 417.555 11502 
181 3.61e-05 122.499 1.99839e+24 417.903 11530.3 
182 3.63e-05 122.502 1.98514e+24 419.759 11504.7 
183 3.65e-05 122.394 1.97893e+24 420.782 11496.6 
184 3.67e-05 121.976 1.97049e+24 422.18 11485.7 
185 3.69e-05 122.309 1.9695e+24 422.134 11478.6 
186 3.71e-05 122.11 1.96073e+24 422.657 11441.6 
187 3.73e-05 121.787 1.96201e+24 422.859 11454.6 
188 3.75e-05 122.066 1.96477e+24 423.586 11490.4 
189 3.77e-05 122.101 1.95085e+24 423.64 11410.5 
190 3.79e-05 122.28 1.95228e+24 423.625 11418.4 
191 3.81e-05 121.656 1.94395e+24 425.76 11427 
192 3.83e-05 121.983 1.94494e+24 426.404 11450.2 
193 3.85e-05 122.013 1.9443e+24 426.679 11453.8 
194 3.87e-05 121.742 1.94266e+24 426.324 11434.6 
195 3.89e-05 122.266 1.95188e+24 426.248 11486.8 
196 3.91e-05 121.818 1.94147e+24 427.044 11446.9 
197 3.93e-05 121.561 1.94566e+24 425.937 11441.8 
198 3.95e-05 122.134 1.96304e+24 425.139 11522.4 
199 3.97e-05 121.797 1.97268e+24 422.839 11516.4 
200 3.99e-05 121.803 1.99895e+24 415.569 11469.1 
