ITEM: TIMESTEP
100000
ITEM: NUMBER OF CELLS
200
ITEM: BOX BOUNDS pp ss pp
0 0.0001
0 4e-05
0 0.0001
ITEM: CELLS id yc f_vel[1] f_vel[2] f_mom[1] f_mom[2] f_mom[3] f_q[*] 
1 1e-07 1.4361 -0.0222173 14679.6 12594.6 -14.306 -86399.2 
2 3e-07 0.549523 -0.0384033 11706.3 11976.3 0.364135 -86787.2 
3 5e-07 1.46972 0.000459979 12020.5 12021.5 -8.10675 -77959.3 
4 7e-07 0.64294 0.0878235 11888.7 11980.9 -3.18404 -82478.6 
5 9e-07 1.34621 -0.0524327 11840.6 11938.6 -12.2603 -83927.6 
6 1.1e-06 1.21232 0.0875437 11727.6 11943.5 -18.0453 -77683.6 
7 1.3e-06 1.63938 0.0381707 11837.1 11925.1 -6.75311 -84596.4 
8 1.5e-06 0.69411 -0.0512774 11799.2 11923.5 2.76792 -79906.5 
9 1.7e-06 1.06145 0.0870917 11893.4 11931.8 -0.279961 -81038.2 
10 1.9e-06 0.764194 0.00622533 11698.9 11881.9 -0.207181 -84602.1 
11 2.1e-06 1.12597 0.0985097 11789.9 11902.8 -6.13137 -79434 
12 2.3e-06 1.63863 -0.00431016 11821.4 11887 0.445006 -87320.5 
13 2.5e-06 0.558524 0.0124474 11795.7 11874 8.01386 -84385.7 
14 2.7e-06 -0.491442 0.0341026 11884.1 11903.4 -7.57048 -85116.6 
15 2.9e-06 -0.234268 0.0721575 11701 11858.6 -9.0536 -78844.1 
16 3.1e-06 -0.225716 -0.059795 11864.1 11868.1 -2.34152 -80329.9 
17 3.3e-06 -0.559164 0.0387718 11750.7 11846.5 -10.8692 -79838.4 
18 3.5e-06 -0.412565 0.0324132 11757 11840.4 -0.158064 -76676.9 
19 3.7e-06 0.369051 0.0394603 11863.6 11854.6 -8.74371 -81893.6 
20 3.9e-06 -0.824769 -0.109895 11685.7 11832.8 -7.05483 -79719.8 
21 4.1e-06 -0.578922 0.0284138 11601.4 11796.4 -10.5512 -82701.5 
22 4.3e-06 -0.95139 0.0187144 11753.3 11816.8 2.76195 -79956.2 
23 4.5e-06 -0.936203 0.0535235 11758.6 11824.6 -2.60106 -79856.8 
24 4.7e-06 -1.7695 -0.0455109 11686.7 11812.2 -8.94441 -84380.4 
25 4.9e-06 -0.519187 -0.0109859 11752.3 11796.3 5.58928 -77584.4 
26 5.1e-06 -1.98473 -0.0525627 11835.8 11791.2 -4.3498 -78318.2 
27 5.3e-06 -1.48898 0.0587215 11763.4 11800 1.99129 -82904.3 
28 5.5e-06 -1.37349 0.0911355 11761.6 11788.1 -11.6066 -82347.4 
29 5.7e-06 -0.666445 0.0298675 11734.9 11767.3 -6.26847 -79136.1 
30 5.9e-06 -1.50346 -0.0559564 11680.7 11785.1 2.74916 -82211.9 
31 6.1e-06 -0.393462 0.0163517 11650 11774.9 -5.00338 -80439.1 
32 6.3e-06 0.47886 -0.13432 11557 11757.6 0.170764 -76012 
33 6.5e-06 0.163263 0.0215088 11637.2 11749.6 -0.589508 -79451.7 
34 6.7e-06 0.0525673 0.0299453 11798.1 11755.1 -0.554866 -80715.3 
35 6.9e-06 -0.249447 -0.0115162 11617.3 11741.4 -15.553 -81124.8 
36 7.1e-06 -1.69341 0.0535127 11719.3 11746.9 7.58982 -80001.1 
37 7.3e-06 -0.802523 0.0451649 11556 11722.5 3.9371 -81866.7 
38 7.5e-06 -1.14651 -0.03842 11580.1 11723.9 -1.85218 -82933.3 
39 7.7e-06 -0.16872 -0.09563 11663.2 11715.9 2.50474 -78089.9 
40 7.9e-06 -1.81682 -0.175475 11644.9 11728.7 -4.91111 -77507.8 
41 8.1e-06 -2.04121 0.00825441 11683.3 11704 6.07813 -79189.7 
42 8.3e-06 -0.986249 -0.176539 11517.7 11724.5 -9.19438 -81724.8 
43 8.5e-06 -0.705079 0.129643 11649.5 11704.8 1.37224 -78549.2 
44 8.7e-06 -1.18619 -0.133852 11588.5 11699.2 -3.20535 -79009.2 
45 8.9e-06 0.519115 -0.0443979 11577.5 11692.6 -3.85681 -84758.3 
46 9.1e-06 0.191503 -0.0730087 11597.4 11680.6 1.6635 -81703 
47 9.3e-06 -0.61268 -0.0574251 11643.3 11694.1 2.95302 -82666.8 
48 9.5e-06 -0.504366 0.118722 11662.9 11704.1 -3.3353 -82819.9 
49 9.7e-06 0.113179 -0.0181906 11742.8 11689.4 3.6323 -77939.3 
50 9.9e-06 0.454636 -0.058351 11581.3 11671.1 -1.72545 -80606.8 
51 1.01e-05 0.764902 0.0648542 11561.4 11686.2 -5.79879 -80487.6 
52 1.03e-05 0.663808 -0.0610766 11615.1 11682.1 -1.50287 -82460 
53 1.05e-05 -0.0511137 -0.0228576 11650.6 11681 4.01556 -80830.9 
54 1.07e-05 -0.0763871 -0.0812014 11495.4 11658.8 7.25635 -79091.8 
55 1.09e-05 -1.38036 0.035552 11654.4 11661.7 1.22074 -80799.6 
56 1.11e-05 -2.32891 -0.0450327 11591.6 11669.6 0.314581 -81565.3 
57 1.13e-05 -1.05521 0.0981754 11616.7 11666.6 -3.0665 -74939.6 
58 1.15e-05 -1.44082 -0.0614797 11551.7 11656.6 2.06494 -79367.5 
59 1.17e-05 -1.4574 -0.0733054 11429.7 11638 1.68071 -74950.2 
60 1.19e-05 -1.1872 0.180663 11572.9 11658.1 -4.35071 -76977.3 
61 1.21e-05 -0.0308058 -0.0938907 11530.2 11637.5 -0.3762 -83896.5 
62 1.23e-05 -0.839988 -0.00932997 11450.3 11623.9 -3.04781 -76212.9 
63 1.25e-05 -1.71299 0.0969012 11599.4 11637.7 -4.60848 -77693.1 
64 1.27e-05 -1.6999 -0.0167677 11564.3 11651 6.4929 -79422.3 
65 1.29e-05 -2.1525 0.035745 11522.3 11617.6 -2.5597 -77673.8 
66 1.31e-05 -2.83634 0.0712486 11571.9 11640 -0.107547 -81302 
67 1.33e-05 -2.76902 0.0637319 11488 11624.6 3.16441 -75334.5 
68 1.35e-05 -1.76103 0.083258 11598.2 11636.2 -7.00109 -79826.7 
69 1.37e-05 -1.47159 -0.054879 11484.4 11629.3 1.9967 -78183 
70 1.39e-05 -0.433544 0.126413 11576.6 11610.9 -2.53373 -79276.4 
71 1.41e-05 -1.65555 0.0281116 11439.8 11613.7 -1.77578 -84460.9 
72 1.43e-05 -1.85624 0.100311 11389.4 11597 -3.96863 -81739.5 
73 1.45e-05 -0.414897 -0.0889621 11441 11610.8 -2.79971 -82304.5 
74 1.47e-05 -1.26214 0.0970342 11509.4 11604.5 -2.53636 -75285.3 
75 1.49e-05 -1.66747 -0.0253096 11628.5 11616 -3.62278 -78059.3 
76 1.51e-05 -1.95104 0.0763543 11577.1 11602.3 4.00048 -77344.8 
77 1.53e-05 -2.12604 0.0371674 11471.3 11599.5 -4.78409 -78816.3 
78 1.55e-05 -2.15384 0.00752024 11472.4 11597.3 -3.46585 -79504.2 
79 1.57e-05 -3.17239 -0.0413697 11520 11602.5 -2.45468 -77529.5 
80 1.59e-05 -3.30729 -0.0384276 11531.5 11600.7 -6.982 -79816.6 
81 1.61e-05 -2.85204 0.035779 11520.7 11599.3 0.185461 -77774.6 
82 1.63e-05 -1.26807 0.0501865 11584.3 11585.9 -1.54323 -76408 
83 1.65e-05 -1.26383 -0.0097166 11461.6 11589 5.93503 -77836.1 
84 1.67e-05 -0.840011 0.112462 11445.2 11581.8 -9.23528 -78656.6 
85 1.69e-05 -2.40401 0.0557059 11496.9 11569.7 1.27884 -78317.9 
86 1.71e-05 -2.70118 0.0613593 11534.7 11583.9 -3.18821 -82360.9 
87 1.73e-05 -1.64891 -0.042551 11547.7 11574.8 -0.764405 -77151.3 
88 1.75e-05 -3.12261 0.168395 11452.5 11570.9 -2.48253 -80423.8 
89 1.77e-05 -3.2791 -0.0134238 11492.6 11566.9 -0.869125 -77711.4 
90 1.79e-05 -2.74881 0.0354757 11506 11574 -2.24924 -81107.6 
91 1.81e-05 -2.48065 0.168492 11400.1 11573.4 7.32533 -78113.6 
92 1.83e-05 -1.37647 -0.0675697 11472.6 11578.5 3.81434 -79916.8 
93 1.85e-05 -1.90294 0.246901 11424.5 11557.5 2.63628 -80601.3 
94 1.87e-05 -0.94543 -0.132527 11429.3 11566.7 -6.24359 -75630.5 
95 1.89e-05 -1.7979 -0.172916 11339.3 11579 -1.15343 -78310.8 
96 1.91e-05 -2.48352 0.0672566 11344.6 11560.5 5.82922 -77300 
97 1.93e-05 -0.839926 0.0442015 11370.9 11570.5 1.96883 -75113 
98 1.95e-05 0.346872 0.0805988 11451.5 11547 3.24317 -78165.7 
99 1.97e-05 -0.748482 -0.00414006 11405.1 11564.6 1.98104 -77548.2 
100 1.99e-05 0.173755 -0.00316222 11444.2 11555.9 12.874 -79044.5 
101 2.01e-05 1.29655 0.137726 11431.8 11573.2 4.66986 -82701.8 
102 2.03e-05 -0.67481 -0.212042 11433.8 11541.6 1.02664 -74039.1 
103 2.05e-05 -1.62537 0.0437498 11432.6 11564.7 -0.665207 -78432.6 
104 2.07e-05 -1.17875 -0.0701863 11575.6 11549.9 -4.36094 -79754.3 
105 2.09e-05 -2.56339 -0.026846 11426.2 11549.7 9.09676 -79920.2 
106 2.11e-05 -2.37357 0.103078 11528.7 11543.7 8.11417 -79580.2 
107 2.13e-05 -3.39507 -0.0629508 11466.6 11539.8 3.76421 -81415.1 
108 2.15e-05 -2.69022 -0.0406212 11477.7 11558.1 -0.735069 -78242.3 
109 2.17e-05 -2.691 0.092878 11389.4 11547 5.06012 -77575.6 
110 2.19e-05 -2.67758 0.00944276 11551 11528.9 5.3949 -80641.1 
111 2.21e-05 -3.4077 -0.048558 11475.1 11547.4 1.26932 -80285.3 
112 2.23e-05 -3.29659 -0.127031 11402.6 11546.7 1.91031 -80100.6 
113 2.25e-05 -1.04109 -0.0219309 11407.3 11536.8 7.91357 -79531.3 
114 2.27e-05 -1.27982 -0.0576607 11404 11532.2 1.33188 -75579.3 
115 2.29e-05 -0.822009 -0.0723835 11372.4 11543.8 0.447726 -82500.1 
116 2.31e-05 -0.999231 0.0833392 11441 11522 1.07016 -84143.7 
117 2.33e-05 -0.614592 -0.149018 11408 11547.7 -5.72664 -79162.6 
118 2.35e-05 -1.02271 0.209515 11416.6 11547 6.41804 -84110.8 
119 2.37e-05 -0.995807 0.00875547 11389.2 11523.6 9.70193 -81321.4 
120 2.39e-05 -1.64952 -0.118344 11434.3 11533.9 1.62601 -79411.1 
121 2.41e-05 -1.9091 -0.0126499 11402.1 11522.9 -0.213241 -76937.2 
122 2.43e-05 -1.41619 0.015345 11385.7 11525.2 8.23039 -80699.9 
123 2.45e-05 -0.775238 0.043051 11518.1 11537.7 -0.329304 -82379.7 
124 2.47e-05 -0.736838 -0.0423025 11337.1 11509.9 -1.1866 -80485.3 
125 2.49e-05 -0.89625 -0.069054 11383.4 11518.1 9.78298 -82002.1 
126 2.51e-05 0.482103 0.00742164 11456.3 11520.7 1.02981 -81870.5 
127 2.53e-05 -0.472286 0.0691937 11475.9 11520.6 -5.09122 -81303.4 
128 2.55e-05 0.0225014 0.0188206 11360.3 11495.4 4.58553 -83807.1 
129 2.57e-05 -1.10439 -0.0244405 11376.9 11526 9.16567 -81671.8 
130 2.59e-05 0.0288395 -0.0350296 11412.4 11511.3 -6.49478 -81361.8 
131 2.61e-05 0.331879 0.0602967 11483.7 11518.2 0.868564 -77385.1 
132 2.63e-05 0.411381 0.00327024 11483.8 11532.2 8.64704 -78248.9 
133 2.65e-05 -0.906418 0.0192463 11386.3 11506.6 -2.36686 -77007.9 
134 2.67e-05 -0.310301 0.0824456 11348.7 11507.1 0.986967 -78983.3 
135 2.69e-05 -0.738519 0.00962146 11399.1 11517.4 -7.69723 -81191.6 
136 2.71e-05 0.0244731 -0.00164721 11266.3 11500.5 4.78432 -81655.7 
137 2.73e-05 -0.0316082 0.001793 11318.7 11514.2 1.46245 -81837 
138 2.75e-05 0.568528 0.0735847 11413.1 11502.7 2.12174 -78631.1 
139 2.77e-05 -1.0145 -0.123931 11356.6 11494 0.100568 -82744 
140 2.79e-05 -1.10404 0.0629914 11436.1 11518.6 -5.01804 -82311.4 
141 2.81e-05 -1.05577 -0.0389339 11443.5 11488.2 0.304352 -81144.8 
142 2.83e-05 -1.13374 0.134323 11448.3 11503.2 -3.5589 -77665.3 
143 2.85e-05 -0.382882 -0.0756546 11235.3 11485.5 -4.02226 -79508.8 
144 2.87e-05 -0.032937 0.0656547 11471.2 11512.4 -5.63072 -76023.4 
145 2.89e-05 -0.28647 -0.0738976 11382.4 11490.7 3.90311 -78898.9 
146 2.91e-05 -0.396315 -0.0118606 11377.8 11490.7 1.27525 -79179.3 
147 2.93e-05 -0.602018 -0.106 11284.6 11499.1 -2.9808 -79311.4 
148 2.95e-05 -0.56862 0.123818 11456.7 11495.8 -5.79048 -81076.8 
149 2.97e-05 -0.428245 -0.0520989 11352.9 11481.2 3.20964 -78076.2 
150 2.99e-05 0.190708 -0.0667062 11290.7 11488.3 -7.22607 -79159.2 
151 3.01e-05 -0.921737 0.175458 11336.6 11495.3 0.522334 -77599.7 
152 3.03e-05 0.0984632 -0.251528 11448.2 11487.8 -4.96764 -83072.9 
153 3.05e-05 -0.726669 0.112991 11376.2 11488 2.01267 -75588.3 
154 3.07e-05 -0.572238 -0.053135 11386.5 11492.3 -1.00895 -78322.1 
155 3.09e-05 0.880917 0.0346493 11349.6 11486.2 0.310613 -77775.2 
156 3.11e-05 0.397582 -0.0244183 11422.4 11475.3 1.16856 -81586.5 
157 3.13e-05 2.08258 0.123698 11310.5 11464.3 3.48625 -78098.8 
158 3.15e-05 0.179345 -0.103497 11348.6 11486.1 2.11697 -77351.1 
159 3.17e-05 0.3318 -0.0528611 11362 11491.7 4.9655 -80433.4 
160 3.19e-05 0.877728 0.0125872 11342.6 11492.1 -0.706038 -79456.9 
161 3.21e-05 1.99546 0.043873 11284.4 11474.7 -5.77954 -79641.6 
162 3.23e-05 1.65523 -0.102347 11349.1 11488.1 4.45879 -80863.9 
163 3.25e-05 0.409237 0.0398142 11344.2 11471.6 2.03926 -82969.8 
164 3.27e-05 -0.0991714 -0.0399978 11358.5 11485.8 0.369376 -76134.8 
165 3.29e-05 -0.797726 -0.0993406 11361.6 11470.1 -0.984864 -79331.3 
166 3.31e-05 -0.101245 0.184881 11375.9 11481.9 -1.21902 -79223.9 
167 3.33e-05 -0.383366 -0.0819407 11314 11472.6 2.81375 -78378.6 
168 3.35e-05 1.24688 -0.204824 11271.2 11469.8 -1.99971 -78478.6 
169 3.37e-05 1.74073 0.155106 11280.5 11465.5 -2.39118 -78884.9 
170 3.39e-05 0.102275 -0.0417849 11336.2 11476.6 -10.106 -78812.8 
171 3.41e-05 2.22728 -0.087678 11447.5 11466.2 0.663657 -78779.9 
172 3.43e-05 1.61153 0.179844 11324.6 11465.7 7.29922 -77408.2 
173 3.45e-05 2.04231 -0.06498 11357.7 11466.3 -4.62064 -76484.2 
174 3.47e-05 0.994354 -0.0831352 11401.2 11471.2 4.02637 -76392.5 
175 3.49e-05 1.52995 0.0513397 11360.2 11464.7 -7.3092 -79058.2 
176 3.51e-05 1.26422 0.00392668 11451.5 11481.5 -0.811343 -78142.3 
177 3.53e-05 1.51276 -0.0816622 11417.2 11467.2 4.10515 -75076.5 
178 3.55e-05 0.931944 -0.059877 11433.7 11466.2 -3.30388 -76741.2 
179 3.57e-05 1.2139 -0.0323571 11396.7 11458.5 -4.37225 -81529.1 
180 3.59e-05 -0.0986767 0.137987 11371.6 11452.7 -9.56204 -76871.2 
181 3.61e-05 -1.78984 -0.0946163 11347.4 11462.7 -1.349 -81324.2 
182 3.63e-05 -0.904621 0.0792426 11395.6 11458.2 -3.26009 -77750.2 
183 3.65e-05 0.259828 -0.0207483 11290.1 11463.5 -2.67237 -73493 
184 3.67e-05 -0.152621 -0.110401 11396.4 11461.3 -7.21397 -82855.8 
185 3.69e-05 0.603361 0.0103816 11212.7 11446.4 -6.3951 -77576.7 
186 3.71e-05 0.762675 0.0722551 11375 11465.5 5.91917 -81715.7 
187 3.73e-05 -0.201754 -0.0239259 11309.8 11438.1 -4.04209 -78365.1 
188 3.75e-05 -0.585951 -0.127542 11338.4 11459.7 2.27901 -79287.8 
189 3.77e-05 0.906963 0.0666296 11256.8 11454.4 3.18952 -78754.3 
190 3.79e-05 0.168017 0.065863 11387.4 11458 -9.10072 -73889.1 
191 3.81e-05 1.22578 -0.125345 11291.2 11456.5 -5.36721 -76556.7 
192 3.83e-05 2.53641 -0.000188786 11367.3 11462.3 -4.8129 -76807.7 
193 3.85e-05 2.06553 0.0872467 11395.2 11469 -10.7094 -78401.5 
194 3.87e-05 0.634751 -0.0900992 11447.3 11463.3 10.9683 -74745.6 
195 3.89e-05 0.398549 0.104725 11466.4 11458.1 -1.62041 -75400.8 
196 3.91e-05 2.81095 0.0651231 11478.8 11465.8 7.05753 -73282.8 
197 3.93e-05 0.832218 -0.0514651 11455.3 11464.3 0.312149 -73878.6 
198 3.95e-05 0.358023 0.0542648 11605.6 11481.2 -9.08706 -70240.9 
199 3.97e-05 1.16347 -0.138945 11505 11462.9 5.51375 -68580.9 
200 3.99e-05 1.21445 0.0558371 12913.8 11537.5 6.64948 -68487.8 
