ITEM: TIMESTEP
100000
ITEM: NUMBER OF CELLS
200
ITEM: BOX BOUNDS pp ss pp
0 0.0001
0 4e-05
0 0.0001
ITEM: CELLS id yc f_vel[1] f_vel[2] f_mom[1] f_mom[2] f_mom[3] f_q[*] 
1 1e-07 -0.268528 -0.0156529 10732.9 10722.2 20.0425 -88806 
2 3e-07 -0.00428836 0.148774 10698.3 10695.5 6.46754 -92806.6 
3 5e-07 1.13357 0.0580483 10735.5 10707.5 11.0008 -87534.3 
4 7e-07 0.861173 0.0310638 10715.7 10692.2 12.5678 -84260.7 
5 9e-07 1.1859 -0.0569473 10686.9 10685 10.6909 -89228.8 
6 1.1e-06 1.19491 -0.0495224 10723.6 10703.2 14.6902 -84804.1 
7 1.3e-06 0.0261224 0.140315 10691 10693.7 7.9838 -88213.5 
8 1.5e-06 -0.0566587 -0.0272812 10696.3 10673.5 12.9658 -92658.6 
9 1.7e-06 0.381547 -0.153126 10726 10701.5 -4.61922 -86338.6 
10 1.9e-06 1.72286 0.266509 10676.3 10676 -2.18471 -90978.1 
11 2.1e-06 0.61388 0.0908672 10688.6 10692.5 9.46596 -88591 
12 2.3e-06 1.58835 0.043776 10694 10689.4 12.4425 -86025.6 
13 2.5e-06 1.05258 0.0694569 10688.8 10687.5 13.419 -83502.5 
14 2.7e-06 0.833316 0.00417117 10663.8 10689.8 5.45687 -84675.4 
15 2.9e-06 -0.38868 -0.0966577 10709 10704 20.0367 -85057 
16 3.1e-06 -0.23571 -0.335334 10717.5 10706.7 8.71598 -80176.8 
17 3.3e-06 0.71092 0.185986 10746.8 10695.1 -1.13856 -88982.3 
18 3.5e-06 0.191047 -0.0974322 10656.5 10700.7 10.9095 -87237.2 
19 3.7e-06 0.11545 0.373192 10617.1 10688.1 17.8145 -87864.1 
20 3.9e-06 -0.290331 -0.251472 10698.1 10694.2 23.8174 -81211.2 
21 4.1e-06 -0.521996 0.0289825 10722.3 10686.1 4.58787 -90557.7 
22 4.3e-06 0.554891 -0.0604549 10729.9 10682.1 5.35798 -90072.3 
23 4.5e-06 -0.0748814 0.0178442 10746.7 10697.4 1.08715 -85618.8 
24 4.7e-06 -0.282498 0.0535673 10702.3 10691.7 9.65146 -91975.3 
25 4.9e-06 -0.534904 -0.115002 10705.6 10702.4 6.76871 -83863.4 
26 5.1e-06 -1.10696 -0.10892 10762.9 10692.8 13.5621 -84131.9 
27 5.3e-06 -1.32149 -0.17002 10712.8 10689 9.37984 -84821.9 
28 5.5e-06 -0.0726221 -0.0845211 10636.9 10678.3 13.7165 -84722.8 
29 5.7e-06 -0.712549 -0.072461 10621.4 10693.9 6.09663 -85314.2 
30 5.9e-06 -0.407028 0.205488 10633.4 10691.9 6.26052 -91368 
31 6.1e-06 -0.309155 0.0997928 10750.5 10697.5 9.58926 -89199.4 
32 6.3e-06 -0.148847 0.0813116 10684.2 10680.3 22.8793 -93391.5 
33 6.5e-06 -1.12436 0.188268 10660.4 10684.5 18.2596 -88595.5 
34 6.7e-06 -1.28157 -0.128429 10631.2 10670.3 5.69349 -87057.3 
35 6.9e-06 -1.41376 0.101064 10638.1 10685.6 12.6205 -88756.3 
36 7.1e-06 -1.40867 0.323849 10666.2 10681.1 7.60662 -89442.3 
37 7.3e-06 -1.60443 0.0342101 10689.7 10686.4 11.5341 -88197.5 
38 7.5e-06 -1.497 -0.281698 10695.3 10690.3 -5.68392 -84633.4 
39 7.7e-06 -2.84545 -0.140379 10752.9 10694.8 -2.166 -85003.4 
40 7.9e-06 -1.83471 -0.15204 10659.7 10691.5 0.837285 -82494.3 
41 8.1e-06 -1.49474 -0.0338487 10660.9 10690 17.8921 -85168 
42 8.3e-06 -1.90324 0.148952 10690.5 10695.8 2.39143 -86564.7 
43 8.5e-06 -2.16862 -0.121643 10681.4 10686.4 14.6227 -86281.7 
44 8.7e-06 -1.33602 -0.035955 10719.3 10692.7 11.4135 -88737.2 
45 8.9e-06 -2.04895 -0.0206099 10712.3 10686.2 5.0751 -89285.4 
46 9.1e-06 -1.5647 -0.095476 10676.5 10684.2 3.65895 -89628.4 
47 9.3e-06 -3.06164 0.0146002 10672.6 10677.8 7.9587 -86897.2 
48 9.5e-06 -2.83491 0.218614 10666.1 10679.4 -3.18031 -88417.9 
49 9.7e-06 -1.79802 0.145828 10666.2 10703.2 -3.67054 -89180.8 
50 9.9e-06 -0.879549 -0.0655591 10681.2 10684.3 21.0689 -89074 
51 1.01e-05 -1.00718 0.207504 10638.8 10678.2 10.1069 -90624.2 
52 1.03e-05 -1.80164 0.194275 10623.3 10680.2 21.0693 -84907.2 
53 1.05e-05 -0.850223 0.0681181 10718.2 10690 7.79722 -87558.9 
54 1.07e-05 -0.582876 0.0725364 10696.3 10684.9 -0.205212 -90582 
55 1.09e-05 -0.905592 0.110156 10739.8 10700 11.2305 -94190.1 
56 1.11e-05 -0.925516 -0.117776 10706.9 10678.1 9.33427 -86688.6 
57 1.13e-05 -1.19406 -0.0458211 10733.7 10701.3 5.84106 -87149.4 
58 1.15e-05 -0.999537 -0.085304 10788 10695.3 11.0656 -86091.9 
59 1.17e-05 -1.10512 -0.0725195 10733.1 10681.4 7.27613 -87196.9 
60 1.19e-05 -0.978851 -0.0386927 10702.2 10681.9 8.42748 -89638.1 
61 1.21e-05 -0.705925 -0.0545437 10651.7 10683.9 5.19609 -85508.3 
62 1.23e-05 -0.951706 0.0105407 10731.3 10684.3 9.32937 -91029.2 
63 1.25e-05 -1.58655 -0.146366 10684.4 10674 5.94158 -88988.6 
64 1.27e-05 -1.37808 -0.019309 10700.4 10701.4 22.5814 -82253.1 
65 1.29e-05 -0.799895 -0.0574567 10732.7 10691.2 8.6857 -86288.6 
66 1.31e-05 -1.3412 -0.175071 10649.5 10688.9 9.5869 -90145.8 
67 1.33e-05 -0.743317 -0.137324 10638.7 10690 0.661703 -87442.7 
68 1.35e-05 -1.21871 0.157327 10730.3 10681.7 5.24562 -88784 
69 1.37e-05 -1.62598 0.0628603 10701.2 10693.4 5.59616 -89420.3 
70 1.39e-05 -1.40252 -0.264351 10660.3 10688.2 1.94834 -87215 
71 1.41e-05 -1.19023 -0.0660926 10724.9 10688.3 8.82136 -86637.9 
72 1.43e-05 -0.884628 0.105111 10691.1 10685.5 1.61792 -93669.8 
73 1.45e-05 -0.636899 0.0756209 10710 10677.8 -6.66262 -90206.2 
74 1.47e-05 -1.82232 -0.0685265 10725.2 10680.2 1.59361 -84877.8 
75 1.49e-05 -1.58917 0.146697 10675.5 10693 6.61096 -90790.1 
76 1.51e-05 -1.64608 0.0991263 10696.6 10682.7 14.9892 -87620.4 
77 1.53e-05 -1.51822 -0.145305 10680.8 10679.3 10.3737 -85722.3 
78 1.55e-05 -1.28507 0.00730541 10742 10681 -2.56863 -92281.6 
79 1.57e-05 -2.70458 -0.0313633 10718.9 10694.1 3.56897 -90237.8 
80 1.59e-05 -2.05506 0.157944 10724.9 10689.9 2.0933 -89282.6 
81 1.61e-05 -1.95897 0.155448 10677 10684.4 6.06522 -87497.3 
82 1.63e-05 -0.837696 0.129062 10678.3 10666.7 10.1338 -92143.9 
83 1.65e-05 -0.628299 -0.0211997 10712.1 10681.1 13.1969 -88242.3 
84 1.67e-05 -0.0105289 -0.12015 10700 10679.2 2.74234 -86012.4 
85 1.69e-05 -1.6306 -0.226285 10695.2 10678.3 0.170595 -85731.5 
86 1.71e-05 -1.10872 0.0958533 10742.8 10687.6 6.62221 -86129.7 
87 1.73e-05 -1.63095 -0.16285 10732.5 10688.1 12.3244 -87080.8 
88 1.75e-05 -1.80256 0.0845818 10692.9 10698.9 11.3494 -89131.1 
89 1.77e-05 -1.01907 0.109144 10696 10681.2 5.80545 -88014.8 
90 1.79e-05 -1.73098 -0.0580299 10663.6 10677.1 9.42433 -87022.8 
91 1.81e-05 -1.8087 0.0337984 10723.3 10685.4 11.005 -85892.9 
92 1.83e-05 -1.77075 -0.197642 10726.1 10673.9 9.69139 -87831.6 
93 1.85e-05 -2.57047 -0.213871 10666 10679.3 12.7186 -83927.2 
94 1.87e-05 -1.09395 0.21049 10685.2 10669.1 14.4828 -85855.3 
95 1.89e-05 -0.341857 -0.0522664 10665.7 10674.3 -1.50679 -81242.5 
96 1.91e-05 -0.435084 -0.206958 10680 10696.5 12.0618 -84837.6 
97 1.93e-05 -2.35642 0.0456782 10681.7 10686.5 9.57341 -85804.3 
98 1.95e-05 -1.28257 -0.16676 10652.1 10685.2 3.88375 -90660.4 
99 1.97e-05 -0.797846 -0.127038 10738.9 10686.7 19.9286 -86586.4 
100 1.99e-05 -2.63811 0.0569651 10709.7 10687.1 1.73377 -85976.6 
101 2.01e-05 -1.37148 -0.208809 10714.1 10688 9.46803 -89762.9 
102 2.03e-05 -1.62422 -0.00186972 10688.7 10680.9 -0.336587 -90265.8 
103 2.05e-05 -2.25474 -0.168519 10699.4 10686.8 9.96869 -87478 
104 2.07e-05 -1.40872 0.0519687 10667.6 10680.8 9.11599 -88789.5 
105 2.09e-05 -1.533 0.196631 10681.9 10679.1 5.43748 -91136.2 
106 2.11e-05 0.0623355 0.0744359 10718.7 10694.1 -2.67554 -85342.7 
107 2.13e-05 -2.29483 -0.141299 10652 10675.5 7.74128 -85090.6 
108 2.15e-05 -2.06226 0.199402 10740.9 10686.2 3.51377 -86531.7 
109 2.17e-05 -2.41896 0.069401 10718.1 10696.6 14.3797 -86832.9 
110 2.19e-05 -1.57719 -0.0684014 10681.7 10679.1 -6.38198 -82879.6 
111 2.21e-05 -0.287276 0.00387092 10671.9 10684.4 3.84299 -86193.5 
112 2.23e-05 -0.540403 -0.0113534 10699.8 10688.7 16.3178 -84979.2 
113 2.25e-05 -1.3414 0.0696947 10723.8 10685.4 8.7461 -88466 
114 2.27e-05 -1.67382 0.119183 10690.9 10679 -4.33474 -90777.3 
115 2.29e-05 -1.7377 -0.0507159 10695.9 10679.4 2.00927 -81790.6 
116 2.31e-05 -1.08794 0.116379 10697.4 10688.5 18.2432 -85117.2 
117 2.33e-05 -2.27422 0.105662 10667.4 10669.1 5.70436 -87269 
118 2.35e-05 -0.917514 -0.141623 10677.8 10691.6 -4.3322 -89326.9 
119 2.37e-05 -2.71305 -0.00500948 10643.9 10687.5 -3.52527 -84964.4 
120 2.39e-05 -1.47203 0.0653405 10679.1 10683.1 0.82152 -88583.5 
121 2.41e-05 0.839803 -0.0481779 10673.8 10674 2.02122 -86740.5 
122 2.43e-05 0.17318 0.135948 10686.5 10682.6 -4.32725 -86860.9 
123 2.45e-05 0.689268 -0.0865092 10661.9 10679.2 4.18292 -89143.9 
124 2.47e-05 0.150221 0.152672 10594.5 10674 -2.07622 -87975 
125 2.49e-05 0.623404 0.136001 10623.4 10688 3.50115 -85039.5 
126 2.51e-05 -0.472021 0.068743 10730.4 10684.1 9.20904 -88254.7 
127 2.53e-05 -0.37112 -0.164844 10669.5 10689.3 9.79323 -86470 
128 2.55e-05 -1.40845 0.169405 10715 10681.4 5.73731 -89551.5 
129 2.57e-05 -2.07706 0.161408 10723.4 10684.4 9.75491 -88012.9 
130 2.59e-05 -2.58216 0.0341847 10742.9 10679.5 1.36326 -89036.9 
131 2.61e-05 -1.96713 0.0788639 10733.4 10689.7 4.24029 -92089.1 
132 2.63e-05 -1.00406 0.0460578 10676.8 10679.5 5.79094 -88354.5 
133 2.65e-05 -1.2784 0.111683 10712 10680.1 0.669729 -89173.3 
134 2.67e-05 -2.25895 0.0683983 10657 10676.8 7.29388 -88257.8 
135 2.69e-05 -1.98154 -0.173066 10742.1 10683.9 12.7331 -81823.4 
136 2.71e-05 -1.72278 -0.101364 10665.7 10675.9 0.00144806 -85287.6 
137 2.73e-05 -0.30664 0.252955 10665.6 10677.8 5.06204 -91141.1 
138 2.75e-05 -0.555841 0.245323 10733.9 10675.3 -0.620781 -88756.8 
139 2.77e-05 -0.703629 -0.13258 10707.7 10679.5 6.0095 -83121.8 
140 2.79e-05 -1.56477 0.295425 10758.8 10689.2 12.6216 -87447.1 
141 2.81e-05 -1.40351 0.173561 10732.9 10687.5 3.14116 -89377.3 
142 2.83e-05 -2.00482 -0.062801 10678.3 10674.4 13.1321 -88336.3 
143 2.85e-05 -1.49107 0.0489395 10649.6 10687.5 2.03729 -85108.6 
144 2.87e-05 -1.79709 -0.0302929 10700.6 10683.8 11.4628 -88350.2 
145 2.89e-05 -1.09526 0.0755738 10680.4 10681 2.64449 -86382 
146 2.91e-05 -0.262615 0.0981587 10692 10678 10.4477 -85814.3 
147 2.93e-05 -0.154035 -0.192845 10718.9 10684.1 20.6073 -84764.4 
148 2.95e-05 -0.290682 -0.00760858 10703.5 10676.9 10.8263 -87072.9 
149 2.97e-05 -0.00065955 -0.159326 10696.8 10694.6 13.9263 -85081.2 
150 2.99e-05 0.509463 0.00887354 10694.6 10669.4 11.4411 -88039.7 
151 3.01e-05 -0.619061 -0.0709414 10677.4 10673.5 5.15605 -86116.7 
152 3.03e-05 -1.69182 -0.0186827 10654.9 10661.9 3.54768 -85498.7 
153 3.05e-05 -0.67878 -0.34506 10653.9 10666.1 11.0124 -82111.4 
154 3.07e-05 -1.2355 0.100479 10657.6 10681.3 6.12694 -88328.9 
155 3.09e-05 -1.04207 -0.20131 10659.2 10666.2 4.7748 -86048.2 
156 3.11e-05 -2.5356 0.102328 10658.8 10688.1 8.94265 -89095.6 
157 3.13e-05 -2.77212 -0.189133 10713.1 10666.4 -0.0987589 -86994.5 
158 3.15e-05 -1.14337 -0.16156 10670.6 10675.1 1.40454 -83050.4 
159 3.17e-05 -1.44548 -0.0620264 10656.4 10682.9 3.81307 -85903.6 
160 3.19e-05 -1.23919 0.119782 10743.5 10672.5 3.4211 -87291.2 
161 3.21e-05 -2.07217 0.0363937 10685.9 10667.5 4.12035 -86004 
162 3.23e-05 -2.08112 0.0858871 10646.9 10679.7 8.54883 -90209.1 
163 3.25e-05 -2.32261 -0.0493373 10608.1 10672.9 4.1303 -86302.9 
164 3.27e-05 -2.70421 0.0898608 10663 10687.4 18.6148 -83055.2 
165 3.29e-05 -3.62956 -0.0849278 10673.4 10674.9 6.00758 -84875.5 
166 3.31e-05 -2.88248 -0.0485252 10716.9 10691.7 3.581 -88607.3 
167 3.33e-05 -3.64905 -0.0341457 10656.8 10678.5 5.52262 -83118.3 
168 3.35e-05 -3.35597 0.0255971 10644.4 10682.6 10.4018 -87395.4 
169 3.37e-05 -4.09599 -0.0789288 10607.6 10683.6 0.0770995 -90491.4 
170 3.39e-05 -2.77904 -0.123662 10735.8 10679.5 6.43771 -89147.6 
171 3.41e-05 -3.61657 0.0485031 10657.3 10673.7 13.2067 -90672.2 
172 3.43e-05 -2.92918 -0.074239 10647.9 10679.5 6.16354 -86316.7 
173 3.45e-05 -3.3358 0.0959588 10720.8 10677.5 5.8488 -88234.8 
174 3.47e-05 -2.711 -0.136649 10746.3 10688.9 10.6555 -85630.4 
175 3.49e-05 -3.42867 -0.0990365 10717.1 10667.2 15.2386 -88054.5 
176 3.51e-05 -1.94221 -0.0119467 10669.5 10677.3 13.9571 -85826.4 
177 3.53e-05 -1.58259 0.129787 10684.7 10680.2 10.4118 -91766.4 
178 3.55e-05 -2.6225 -0.216702 10648.7 10674.9 11.2886 -88921.3 
179 3.57e-05 -2.56051 0.0510912 10677.6 10677.9 7.48931 -85908.7 
180 3.59e-05 -1.1778 -0.0114322 10654.2 10677 0.368555 -85823.3 
181 3.61e-05 -1.35666 0.0133097 10774.7 10677.7 5.68772 -88151.1 
182 3.63e-05 -1.16472 0.146194 10691.7 10664.7 -3.01989 -87272.1 
183 3.65e-05 -1.35413 0.00476088 10685.2 10674 5.06256 -91481.2 
184 3.67e-05 -1.3245 -0.113583 10634.1 10676 5.78785 -87105.6 
185 3.69e-05 -1.68609 0.201179 10633.9 10680.3 7.52045 -87197.2 
186 3.71e-05 -1.23691 0.069191 10662.5 10675.1 8.27943 -84291.4 
187 3.73e-05 -0.739238 -0.0457161 10690.3 10671.1 2.11473 -85304.2 
188 3.75e-05 -1.19341 0.162406 10647.4 10672.6 10.9055 -86625 
189 3.77e-05 -0.75521 0.240518 10639.1 10660.7 4.06972 -91069 
190 3.79e-05 0.446348 0.0417914 10678.2 10684.6 3.60794 -88308 
191 3.81e-05 -0.959791 0.111941 10652.2 10674.3 7.67155 -87565.5 
192 3.83e-05 -1.36862 -0.152995 10756.7 10675.1 6.62381 -87661.9 
193 3.85e-05 -1.31609 0.0536883 10729.7 10676 -2.11503 -84130.9 
194 3.87e-05 -0.343711 0.0886754 10809.5 10666.1 2.08989 -92739.7 
195 3.89e-05 -0.201574 0.183008 10790.4 10679.3 4.18024 -87003.1 
196 3.91e-05 -1.33629 0.153611 10714.7 10660.4 -0.179279 -85452.6 
197 3.93e-05 -0.337824 -0.0131618 10733.3 10673.7 8.88069 -81540.6 
198 3.95e-05 -1.05698 0.0304006 10670.5 10673.2 7.79629 -80868.5 
199 3.97e-05 -1.03539 0.0949348 10725.9 10670 12.8558 -82499.7 
200 3.99e-05 -2.1116 0.0528281 10763.1 10684 -7.87186 -83577.9 
