ITEM: TIMESTEP
100000
ITEM: NUMBER OF CELLS
200
ITEM: BOX BOUNDS pp ss pp
0 0.0001
0 4e-05
0 0.0001
ITEM: CELLS id yc f_vel[1] f_vel[2] f_mom[1] f_mom[2] f_mom[3] f_q[*] 
1 1e-07 -0.94832 0.00338573 10696.8 10708.3 4.57915 -86427.3 
2 3e-07 -0.633564 -0.0628273 10642.5 10698.2 -1.69788 -86832.3 
3 5e-07 0.0592433 0.308955 10706.4 10699.2 9.92944 -89077.5 
4 7e-07 -0.0853967 0.0426703 10695.8 10688 3.28362 -88244 
5 9e-07 -0.914336 -0.222855 10701.9 10686.7 12.1624 -85305.9 
6 1.1e-06 -1.30725 -0.237201 10747.9 10702.9 3.57646 -82148 
7 1.3e-06 -1.32348 0.218021 10651.2 10712 6.46092 -94081.3 
8 1.5e-06 -1.53269 0.150434 10624.1 10694.8 7.69619 -88577.6 
9 1.7e-06 -1.35513 0.293514 10704.9 10720.5 1.43521 -88037.9 
10 1.9e-06 -1.87228 -0.379291 10670.9 10698 5.06236 -82541.9 
11 2.1e-06 -1.24419 0.307126 10609.4 10681 6.37055 -92913.2 
12 2.3e-06 -1.46281 -0.04128 10703.2 10700.6 21.8776 -84669.8 
13 2.5e-06 -1.01304 -0.469757 10783.4 10703.4 12.8551 -78856.2 
14 2.7e-06 -2.33701 -0.383983 10698.5 10703.5 -0.0572271 -84069.7 
15 2.9e-06 -1.48521 0.0178915 10670.1 10683.8 -7.37957 -82767.7 
16 3.1e-06 -1.08277 0.135916 10637.2 10696.6 14.5292 -84273.6 
17 3.3e-06 -0.6206 0.0593843 10713.9 10711.6 0.910492 -89011.2 
18 3.5e-06 -1.01183 -0.201566 10659.8 10676.9 -1.7491 -83485.7 
19 3.7e-06 -1.04134 0.204572 10648.5 10692.5 2.32382 -86623.2 
20 3.9e-06 -1.07721 -0.322946 10636.3 10697 29.0054 -83634.4 
21 4.1e-06 -1.58278 -0.0317466 10669.8 10674.8 7.13289 -83270.1 
22 4.3e-06 -2.0612 -0.0392814 10638.4 10678.1 11.6418 -82328.3 
23 4.5e-06 -2.55947 0.22798 10677.2 10684.3 -7.73288 -83820.2 
24 4.7e-06 -2.31129 -0.0194833 10653.6 10679.2 0.640619 -82226.1 
25 4.9e-06 -2.11858 -0.0823135 10714.9 10697.9 -0.451785 -84116.8 
26 5.1e-06 -2.37519 0.163493 10753.9 10689.3 -7.31353 -88546.7 
27 5.3e-06 -1.86708 0.134032 10681.7 10683 13.1331 -83061.5 
28 5.5e-06 -1.90874 0.121607 10647.4 10689.5 8.42832 -89164.9 
29 5.7e-06 -0.971483 0.0231291 10618.5 10707.7 -2.63621 -89680.9 
30 5.9e-06 -1.65878 0.121299 10696.8 10686 -1.85926 -85665.5 
31 6.1e-06 -1.53194 -0.0435559 10681.8 10693.1 -5.7254 -88948 
32 6.3e-06 -0.613363 -0.0813049 10585.4 10670.7 14.7605 -88026.8 
33 6.5e-06 -1.09087 -0.226287 10591.1 10676.5 1.46351 -81866 
34 6.7e-06 -1.09865 -0.0711892 10713.3 10694.7 10.9099 -85368 
35 6.9e-06 -1.7517 0.352906 10680.3 10686.3 -4.97575 -84878.6 
36 7.1e-06 -2.39482 -0.0902493 10663.7 10682.1 -3.59993 -81414.3 
37 7.3e-06 -1.96622 0.0894705 10627.4 10673.9 3.43209 -88975.5 
38 7.5e-06 -2.62429 -0.140285 10663.8 10672.9 9.71118 -84384.9 
39 7.7e-06 -2.48022 -0.0877467 10681.8 10691.4 10.0233 -88702.1 
40 7.9e-06 -2.73898 -0.0127147 10653.9 10681.3 18.0976 -86509.6 
41 8.1e-06 -2.32342 -0.0176873 10728 10685.8 -2.37619 -92144.1 
42 8.3e-06 -1.29372 0.0249491 10704.4 10706.8 -7.68388 -89083.2 
43 8.5e-06 -1.56654 0.0222814 10650.3 10692.9 4.60278 -87184.7 
44 8.7e-06 -1.27171 -0.0110328 10599.9 10682 10.5128 -87861.5 
45 8.9e-06 -2.59169 0.129185 10672.5 10685.5 10.5704 -89946.9 
46 9.1e-06 -2.35785 0.292013 10662.6 10667.8 -0.920161 -84090.8 
47 9.3e-06 -2.75793 -0.013731 10683 10690.5 -0.349876 -89957.7 
48 9.5e-06 -1.94935 -0.0293592 10633.7 10680.2 -0.218453 -84104.9 
49 9.7e-06 -1.52625 0.0852209 10666.4 10678.9 3.7503 -85040.5 
50 9.9e-06 -1.64662 -0.0491917 10700.2 10678.2 -1.74276 -86992.2 
51 1.01e-05 -0.86921 0.133293 10687.5 10676.8 -7.19182 -88307.8 
52 1.03e-05 -0.669178 -0.368115 10687.5 10693.4 21.4381 -83929.5 
53 1.05e-05 -1.11333 -0.0748411 10651.6 10686.6 7.35201 -86633.1 
54 1.07e-05 -1.16833 0.108757 10666.7 10683.3 9.80988 -88591.6 
55 1.09e-05 -1.6883 -0.180065 10632.4 10676.7 -19.2777 -83214.1 
56 1.11e-05 -1.34254 0.00314633 10613.8 10680.6 -3.17038 -92625.1 
57 1.13e-05 -1.01222 0.459084 10651.1 10671.4 9.02398 -89176.8 
58 1.15e-05 -0.734035 0.110211 10706.7 10686.6 1.49147 -87994.2 
59 1.17e-05 -1.05325 0.13903 10654.3 10682 7.83434 -89942.7 
60 1.19e-05 -2.01127 0.217042 10699.6 10683.2 -10.7624 -85488.1 
61 1.21e-05 -1.37197 -0.0690653 10676.4 10672.8 14.8138 -88174.2 
62 1.23e-05 -2.05395 0.186417 10634 10677.7 3.77705 -86943 
63 1.25e-05 -2.38917 0.0713352 10699 10695.6 -6.64713 -86276.3 
64 1.27e-05 -2.49643 -0.0904976 10724.1 10704.8 -11.4861 -86528.9 
65 1.29e-05 -2.55418 0.00237951 10626.5 10696.8 -2.33083 -89900.7 
66 1.31e-05 -2.26594 -0.246875 10662.7 10688.5 3.46472 -79646.8 
67 1.33e-05 -1.33322 -0.249564 10674.6 10675.7 8.63333 -89262.2 
68 1.35e-05 -2.97557 -0.125955 10648.5 10679.7 -0.680533 -84823.9 
69 1.37e-05 -2.8098 0.115546 10711.9 10681.8 -2.43135 -88771.4 
70 1.39e-05 -2.13263 -0.0781441 10675.2 10668.2 -9.45454 -88873.2 
71 1.41e-05 -0.846321 -0.166789 10709.3 10685.8 4.10134 -87852 
72 1.43e-05 -1.39525 0.0649456 10704 10679.3 -17.197 -85605.7 
73 1.45e-05 -2.07908 0.10268 10729 10674.4 -8.62078 -89466.6 
74 1.47e-05 -1.40568 0.456746 10678.5 10675.6 -0.156593 -86492.2 
75 1.49e-05 -0.807967 -0.180094 10683.3 10676.6 -6.58822 -83311.5 
76 1.51e-05 -0.92337 -0.0623111 10559.7 10662.7 -2.80804 -88938.6 
77 1.53e-05 -0.524625 0.175628 10615.4 10680.7 -10.6871 -93292 
78 1.55e-05 -0.0024878 0.0659627 10613.4 10664.4 -10.8427 -88751.4 
79 1.57e-05 0.116959 -0.279842 10635.9 10663.3 -4.9828 -83152.5 
80 1.59e-05 0.218566 -0.376638 10659.7 10668.1 -3.13256 -83799.1 
81 1.61e-05 0.803632 0.134647 10676.1 10686.4 -6.45315 -84907 
82 1.63e-05 -1.09103 -0.116666 10645.3 10681.4 -6.19119 -86060.2 
83 1.65e-05 -0.316165 -0.142246 10692.6 10665.6 -12.2732 -85240.1 
84 1.67e-05 -0.0915927 -0.0448649 10675.5 10677.7 -8.5656 -86154 
85 1.69e-05 0.249978 -0.150956 10594.1 10669.7 5.24077 -85842.8 
86 1.71e-05 -1.82172 -0.413236 10646.1 10678.3 3.15482 -89594.7 
87 1.73e-05 -1.39282 0.168186 10636 10669.1 -4.9933 -88192.4 
88 1.75e-05 -1.09553 -0.13893 10746.2 10675.8 -10.3952 -92510.3 
89 1.77e-05 -1.03223 0.101982 10691.9 10682.5 -5.65261 -91212.2 
90 1.79e-05 -1.41516 -0.0267886 10631.9 10667.1 4.96988 -86151.6 
91 1.81e-05 -1.88932 0.0285967 10668.4 10663.6 -17.9553 -80729.8 
92 1.83e-05 -0.500917 0.0690705 10687.2 10650.6 -4.28226 -89232.6 
93 1.85e-05 -0.27017 0.169302 10695.2 10663.8 -6.22426 -87587.7 
94 1.87e-05 -0.428246 0.00681942 10666.1 10676.1 8.89235 -90213.9 
95 1.89e-05 0.00506748 -0.478469 10661.5 10675 -11.0771 -84503 
96 1.91e-05 0.186263 0.0354512 10677.6 10663.6 8.24279 -84941.4 
97 1.93e-05 -0.53604 0.513606 10723.4 10687.1 -4.88748 -93628.3 
98 1.95e-05 -0.207528 -0.111789 10711.2 10679.3 17.5747 -93064.7 
99 1.97e-05 -1.23503 -0.304142 10633.7 10642.7 -11.0638 -88186.3 
100 1.99e-05 0.346416 0.211412 10606.5 10663.1 8.75743 -88644.7 
101 2.01e-05 -1.36123 -0.324859 10686.8 10671.4 -2.58874 -87723.3 
102 2.03e-05 -1.16289 -0.271987 10669.6 10679 -7.26502 -81813 
103 2.05e-05 -1.0673 -0.0797601 10607.2 10656.3 -12.137 -89448.2 
104 2.07e-05 -0.466765 0.0964877 10684.5 10679.8 -0.829784 -84728.6 
105 2.09e-05 -1.35375 -0.18476 10705.8 10658.3 5.66478 -86364.1 
106 2.11e-05 0.171354 -0.27755 10685 10681.4 -4.01456 -85333.9 
107 2.13e-05 -0.565953 -0.0916897 10671.7 10680.4 -3.7144 -86853.3 
108 2.15e-05 -0.109701 0.273638 10652.9 10662.3 -4.44092 -89521.9 
109 2.17e-05 -0.986654 0.219301 10669.3 10662.1 11.347 -88278.9 
110 2.19e-05 -1.20645 -0.0697075 10699 10684 0.774772 -88799.7 
111 2.21e-05 -1.19324 -0.154432 10694.3 10657.5 7.59736 -89915.2 
112 2.23e-05 -0.385553 0.154284 10673.3 10675.6 6.82415 -93903.2 
113 2.25e-05 -0.31603 -0.00265951 10664 10664.7 5.27181 -87187.9 
114 2.27e-05 -1.12215 -0.33149 10641.8 10668.8 1.36632 -84803.1 
115 2.29e-05 -0.991704 -0.223026 10581.9 10658.6 3.50394 -86675.6 
116 2.31e-05 0.138951 -0.171521 10664.1 10672.4 -3.41173 -84624.4 
117 2.33e-05 0.151457 -0.22312 10695.9 10684.2 -7.28186 -87185 
118 2.35e-05 0.354088 -0.168459 10719.6 10665.8 -1.03953 -84363.7 
119 2.37e-05 -0.357269 -0.213021 10641 10668.2 -10.6724 -84736 
120 2.39e-05 0.565216 0.161122 10685.9 10684.1 -1.31669 -89224.9 
121 2.41e-05 -0.226844 -0.0166262 10656.2 10663.9 5.70744 -89131.8 
122 2.43e-05 -1.75986 -0.290834 10669.4 10657.1 6.09811 -87175.8 
123 2.45e-05 -0.281126 0.438753 10613.5 10662.9 11.8543 -93600.2 
124 2.47e-05 -0.332284 -0.178568 10696.9 10674 -15.7395 -79838 
125 2.49e-05 -0.956752 0.0209229 10595.7 10652.8 -2.7282 -88818.5 
126 2.51e-05 -0.352178 -0.135859 10650.1 10677.9 -5.88223 -84140.9 
127 2.53e-05 -1.01019 -0.201477 10618.1 10665.7 2.88707 -81580 
128 2.55e-05 -1.247 0.0763501 10704.1 10677.8 13.4508 -86394.7 
129 2.57e-05 -1.51255 0.0695553 10618.6 10655.7 -5.16616 -89476.2 
130 2.59e-05 -1.404 -0.0428895 10642.5 10670.4 3.66124 -83323.5 
131 2.61e-05 -0.550622 -0.0836427 10587.1 10663.1 5.78871 -84428.8 
132 2.63e-05 -0.376293 -0.107028 10600.2 10666 4.79453 -86858.7 
133 2.65e-05 0.849085 -0.1318 10667.1 10667 -3.82834 -85350.5 
134 2.67e-05 -0.477683 -0.265943 10609.4 10668.2 1.61385 -87330.3 
135 2.69e-05 0.705901 -0.102613 10667.1 10670.1 -6.48008 -84152.6 
136 2.71e-05 1.75375 0.0532271 10635.2 10660.5 -9.41641 -87727.1 
137 2.73e-05 0.78201 -0.089928 10670.1 10661.2 -0.625724 -84660 
138 2.75e-05 0.22738 -0.168928 10618.6 10662.8 9.58478 -89211.1 
139 2.77e-05 0.384246 -0.0867557 10653.7 10665.6 5.34444 -90365.7 
140 2.79e-05 -0.344794 -0.354396 10596.4 10661.9 -1.86203 -81531.1 
141 2.81e-05 1.19918 -0.311173 10731.3 10666.1 3.61811 -80290 
142 2.83e-05 1.07493 -0.141838 10658.6 10652.2 2.01541 -85305.1 
143 2.85e-05 -0.102808 -0.106531 10747.7 10671.1 7.45084 -84368.7 
144 2.87e-05 -0.350114 -0.0294572 10717.5 10662 9.87968 -81285.9 
145 2.89e-05 -0.455182 -0.30963 10695 10663.7 5.71537 -81658 
146 2.91e-05 -0.870424 -0.0413657 10680.2 10666.3 -8.31805 -88933.5 
147 2.93e-05 -0.888031 0.115464 10718.6 10660 3.21563 -87396.6 
148 2.95e-05 -2.14868 -0.223367 10626.9 10661.7 1.24521 -76129.1 
149 2.97e-05 -0.877556 -0.0977915 10658.3 10672.4 7.94708 -86980.2 
150 2.99e-05 -0.0977923 -0.206625 10623.5 10655.9 2.47678 -86142.4 
151 3.01e-05 -1.11416 0.247306 10688.7 10674.9 7.29648 -90095.6 
152 3.03e-05 -0.458642 0.0213987 10614.1 10664.8 -9.64177 -88433.4 
153 3.05e-05 -1.35844 -0.296226 10637.8 10664 2.71842 -85502.8 
154 3.07e-05 -0.996902 0.0831394 10681.6 10657.1 1.98402 -87602.7 
155 3.09e-05 -1.15134 -0.347633 10698.9 10671 -0.70246 -81863.8 
156 3.11e-05 -1.18425 0.0237227 10702.7 10646.9 0.743037 -86567.7 
157 3.13e-05 -1.18952 -0.0950763 10687.3 10660.1 3.26392 -84578.9 
158 3.15e-05 -0.565482 -0.166042 10626.4 10652.8 -6.16723 -78595.6 
159 3.17e-05 0.528342 0.316025 10634.5 10669.1 13.2331 -88127.1 
160 3.19e-05 -0.0805743 0.0685447 10666.5 10664.4 5.69004 -91328 
161 3.21e-05 -0.487377 -0.0156498 10654.5 10670.6 5.96018 -86150.2 
162 3.23e-05 -1.16113 -0.24934 10655.7 10659 11.5161 -84287.9 
163 3.25e-05 -1.97928 -0.173385 10643.5 10659.8 -0.0835269 -79728.5 
164 3.27e-05 -1.54082 -0.210533 10657.1 10663.4 8.47911 -86451.1 
165 3.29e-05 -2.69163 -0.0329161 10663.9 10669.1 -10.7301 -85462.3 
166 3.31e-05 -1.68083 -0.00676585 10583.8 10665 -6.0986 -89009.9 
167 3.33e-05 -1.39061 0.350202 10692.4 10666.8 4.32834 -91923.2 
168 3.35e-05 -1.76203 -0.215882 10665.9 10658 7.99596 -85503.4 
169 3.37e-05 -1.37451 0.126237 10689.9 10660.6 -2.56107 -88392.1 
170 3.39e-05 -2.11505 -0.0628695 10700.5 10665 -13.6138 -80756.9 
171 3.41e-05 -0.761111 -0.0366741 10693.9 10677.5 -8.20959 -84995.9 
172 3.43e-05 -1.00766 0.0812544 10614.6 10658.8 4.39903 -83912.3 
173 3.45e-05 0.670964 0.237764 10668.9 10665.8 -3.0755 -86387.6 
174 3.47e-05 -0.34027 -0.0643889 10593.2 10666 -10.4693 -87415.1 
175 3.49e-05 1.1109 0.0671792 10592.1 10659.3 2.61783 -87383.9 
176 3.51e-05 0.905922 0.0522302 10592.9 10671 5.92921 -91304.4 
177 3.53e-05 -0.628404 -0.220974 10602.2 10653.9 3.72309 -89720.2 
178 3.55e-05 -0.630076 0.0316009 10561.6 10656.1 4.91686 -88126.4 
179 3.57e-05 -0.154241 0.207337 10574.8 10653.3 -5.3693 -87389.7 
180 3.59e-05 -0.785167 -0.0980642 10630.4 10656.5 -3.18325 -89728.5 
181 3.61e-05 0.0296274 -0.277727 10622.3 10673.4 -7.3788 -84472.1 
182 3.63e-05 0.0940311 -0.0197373 10584.1 10657.8 2.23255 -85439.7 
183 3.65e-05 -0.0441356 -0.212985 10641.9 10673.3 -1.93623 -87405.1 
184 3.67e-05 0.0728417 -0.195322 10748.9 10666.9 6.93758 -85630.8 
185 3.69e-05 0.753816 0.0155387 10670.2 10651.4 -1.73654 -85618 
186 3.71e-05 1.28691 -0.0045899 10672.5 10659.9 -1.15675 -87751.6 
187 3.73e-05 0.457146 -0.11173 10631.8 10659.3 -9.60534 -85124.8 
188 3.75e-05 -0.211169 0.0872324 10686.3 10681.5 2.19782 -87515 
189 3.77e-05 -1.53401 -0.298455 10696.3 10672.2 3.6098 -86114.5 
190 3.79e-05 -1.06039 -0.068127 10654.9 10645.7 4.50127 -83298.6 
191 3.81e-05 -1.553 -0.225959 10706.1 10650.2 2.76991 -83841.3 
192 3.83e-05 -1.21312 0.0184275 10767.7 10663 0.177959 -86978.7 
193 3.85e-05 -0.0493697 -0.145505 10693.1 10666.9 -1.74693 -83858.8 
194 3.87e-05 0.234067 0.245102 10675.3 10662.9 7.26123 -83683.4 
195 3.89e-05 -0.173069 0.195594 10728.9 10662.4 10.8468 -85218.3 
196 3.91e-05 -0.431725 0.00703444 10720.1 10673.2 -4.74293 -85184.5 
197 3.93e-05 -0.293763 -0.0295649 10686.7 10665.7 2.19955 -84119.8 
198 3.95e-05 -1.33694 -0.133958 10674.2 10665.7 5.79925 -82099.6 
199 3.97e-05 -0.763991 0.0550959 10644.5 10659.5 -7.29832 -82514.2 
200 3.99e-05 0.0789626 0.0363502 10708 10660.2 -2.4814 -83303.7 
