ITEM: TIMESTEP
300000
ITEM: NUMBER OF CELLS
200
ITEM: BOX BOUNDS pp ss pp
0 0.0001
0 4e-05
0 0.0001
ITEM: CELLS id yc f_vel[1] f_vel[2] f_mom[1] f_mom[2] f_mom[3] f_q[*] 
1 1e-07 0.0428932 0.115325 10629.5 10690.7 1.87979 -83092 
2 3e-07 -0.340372 -0.167742 10626 10667.3 5.00283 -84742.4 
3 5e-07 -0.332021 0.0358248 10617.8 10678.8 -7.31519 -88096.5 
4 7e-07 -0.198665 -0.040278 10622.6 10678.6 3.40454 -85795.9 
5 9e-07 0.303939 0.0375393 10669.7 10673.2 -3.64829 -90433.3 
6 1.1e-06 0.413465 0.0174047 10619.7 10672.9 5.21764 -87778.9 
7 1.3e-06 0.407418 -0.134982 10627.6 10678.9 -6.45341 -87123.5 
8 1.5e-06 0.31933 -0.0668787 10628 10671.9 -1.58713 -87057.5 
9 1.7e-06 0.292956 -0.0109475 10639.2 10678.7 6.70162 -88442.6 
10 1.9e-06 0.446576 -0.051689 10674.3 10674.8 6.9489 -88051.4 
11 2.1e-06 0.0327618 -0.0930858 10661.4 10679.5 0.743386 -87362.7 
12 2.3e-06 -0.247727 0.0174167 10640.7 10666.2 -0.357726 -87030.5 
13 2.5e-06 -0.185905 -0.0345704 10668.4 10673.4 6.41917 -86224.6 
14 2.7e-06 -0.610077 0.00690505 10689 10678.2 -2.85524 -88842.6 
15 2.9e-06 -0.128988 -0.123441 10675.6 10681.1 1.68704 -86077.4 
16 3.1e-06 -0.318941 -0.106205 10635.7 10676.8 -5.6664 -87765.2 
17 3.3e-06 -0.679527 0.0525787 10674 10681.3 5.81795 -87785.4 
18 3.5e-06 -0.335279 0.0236269 10658.9 10677.7 1.31944 -87347.3 
19 3.7e-06 -0.370586 -0.0962467 10656.2 10669.4 7.00635 -87469.1 
20 3.9e-06 -0.0384723 -0.0305996 10640.6 10669.6 -4.14508 -88683.7 
21 4.1e-06 0.0223974 -0.0323271 10645.6 10671 -4.86018 -87177.5 
22 4.3e-06 -0.303895 0.0771254 10671.4 10678 0.838383 -89844.8 
23 4.5e-06 -0.248982 -0.0124084 10656.6 10681.9 2.19049 -88732 
24 4.7e-06 -0.356359 -0.123948 10680.1 10683.2 -1.49934 -84977.2 
25 4.9e-06 0.00117378 -0.0401492 10670.5 10684 -0.627696 -88502.1 
26 5.1e-06 -0.02205 -0.133469 10673.5 10674.5 0.254275 -87997.6 
27 5.3e-06 -0.09435 -0.0161216 10678.2 10676.3 -1.84801 -89484.5 
28 5.5e-06 -0.122461 -0.0671124 10647.5 10669.3 -2.58691 -89530 
29 5.7e-06 -0.536271 -0.110352 10675.6 10677 0.0602228 -87840.8 
30 5.9e-06 -0.236333 0.030721 10697.3 10678.2 -0.0333497 -88860.1 
31 6.1e-06 -0.351512 -0.131321 10678.5 10687 2.03487 -86676.4 
32 6.3e-06 -0.478394 -0.0609125 10683.5 10679.5 7.5148 -89003.9 
33 6.5e-06 -0.719456 0.0485663 10664.6 10676.9 -0.318329 -88541.4 
34 6.7e-06 -1.03383 0.1689 10670.7 10680.2 -2.06448 -88696.6 
35 6.9e-06 -1.00942 -0.0436477 10678 10680.9 -3.33693 -89446.1 
36 7.1e-06 -1.13528 -0.0985207 10686.5 10677.2 0.912945 -88367.6 
37 7.3e-06 -1.06861 -0.0637252 10676.1 10667 -2.01736 -87125.5 
38 7.5e-06 -1.08898 0.0335854 10659 10674.4 2.05916 -88014.5 
39 7.7e-06 -0.396611 0.118116 10647.5 10675.8 -2.28816 -89108.7 
40 7.9e-06 -0.280406 -0.0542142 10689.2 10679.4 1.26228 -88791.2 
41 8.1e-06 -0.137491 -0.0106851 10703.4 10682.2 -7.56932 -88203.8 
42 8.3e-06 -0.172373 0.0415619 10643.3 10677.7 4.42184 -88633 
43 8.5e-06 -0.612072 -0.0477242 10687.2 10674.8 -6.82875 -89265.6 
44 8.7e-06 -0.291099 -0.0218957 10653.5 10671.5 0.397004 -86533.7 
45 8.9e-06 -0.528528 0.0027092 10661.8 10679.2 1.04079 -88306 
46 9.1e-06 -0.556193 -0.0254673 10676.1 10687.5 2.39628 -88405.6 
47 9.3e-06 -0.866408 0.0664906 10665 10678.1 -4.49663 -88415.8 
48 9.5e-06 -0.865987 -0.0403953 10677.5 10675.2 1.97921 -87419.2 
49 9.7e-06 -0.494233 0.0308475 10701.6 10675.7 2.20508 -88609.2 
50 9.9e-06 -0.532017 -0.0574648 10669.2 10678 2.21958 -86527.2 
51 1.01e-05 -0.993576 -0.0210998 10667.6 10673.5 -1.07519 -90013.2 
52 1.03e-05 -1.22824 -0.0948834 10690.1 10674.1 1.55303 -86978.2 
53 1.05e-05 -0.935354 0.0213332 10689.3 10677.8 -3.19474 -89680.3 
54 1.07e-05 -1.13102 0.00603303 10708.1 10676.7 -0.455603 -88630.8 
55 1.09e-05 -1.58952 -0.0284154 10661.4 10676.3 -6.32678 -89949.1 
56 1.11e-05 -1.40321 0.000705781 10661.8 10681.9 -2.09151 -91752.3 
57 1.13e-05 -1.54478 -0.0762481 10650.6 10674.8 -0.776647 -89182.3 
58 1.15e-05 -1.09057 0.0413679 10671.9 10674.7 2.8138 -87932.2 
59 1.17e-05 -1.17762 -0.0892257 10677 10679.8 -6.57691 -87364.5 
60 1.19e-05 -1.48572 -0.0309002 10651.8 10666.7 0.256867 -88768 
61 1.21e-05 -1.19829 -0.0399204 10641.2 10671.2 -5.31052 -87881.3 
62 1.23e-05 -1.29743 0.00740898 10635.9 10680.7 -1.23599 -89114.1 
63 1.25e-05 -1.22714 -0.0318875 10641.7 10676.7 0.0394821 -90496.7 
64 1.27e-05 -1.04508 -0.052607 10652.3 10677.4 0.543282 -89086 
65 1.29e-05 -0.574911 -0.199954 10662.5 10677.3 -0.406628 -87548.1 
66 1.31e-05 -0.84837 0.115708 10640.7 10673.4 -1.39358 -90790.6 
67 1.33e-05 -1.08148 0.00780957 10669.3 10680.4 6.54296 -90731.9 
68 1.35e-05 -1.05659 0.0282753 10642.9 10679.5 -2.63068 -89894.5 
69 1.37e-05 -0.65142 -0.0233446 10708.3 10677.5 -4.90322 -87198.6 
70 1.39e-05 -0.430896 -0.00527902 10665.8 10677.8 -6.02191 -89124.9 
71 1.41e-05 -1.11496 0.152309 10650.1 10673.6 4.74238 -91390.7 
72 1.43e-05 -1.0594 -0.0705063 10668.5 10677.5 -5.93028 -88577.4 
73 1.45e-05 -1.18895 -0.0400959 10662.4 10680.6 -0.968948 -90046.3 
74 1.47e-05 -0.984515 -0.0222307 10648 10678.2 -3.45858 -88294.8 
75 1.49e-05 -0.97997 -0.0466733 10648.9 10676.3 1.17159 -86307.3 
76 1.51e-05 -0.324367 0.0159754 10679.4 10680.2 -4.3329 -86419.1 
77 1.53e-05 -0.649151 -0.0378637 10690.8 10677.6 -3.58679 -89530.1 
78 1.55e-05 -0.94821 -0.117634 10707.7 10677.2 -1.80226 -88088.7 
79 1.57e-05 -0.708117 -0.00836422 10714.7 10673.3 2.18567 -89373.5 
80 1.59e-05 -1.30391 -0.0436003 10681.5 10670.1 -0.0540146 -88208.2 
81 1.61e-05 -1.15068 -0.00906385 10682.5 10679.1 2.36358 -90448.7 
82 1.63e-05 -0.966398 -0.141911 10679.3 10679.7 0.417676 -87358.9 
83 1.65e-05 -0.0902595 0.00432952 10680.1 10680.9 -2.19363 -88961.5 
84 1.67e-05 -0.49041 -0.108574 10667.1 10678.1 10.6382 -87658.9 
85 1.69e-05 -0.225054 -0.0992327 10678.6 10682.6 0.116597 -88466.6 
86 1.71e-05 -0.228973 -0.0632209 10708.9 10682.8 -2.98451 -88183.5 
87 1.73e-05 -0.45121 0.0089081 10693.8 10688.7 1.62289 -87921.9 
88 1.75e-05 -0.108341 -0.122499 10689.1 10673.6 -2.12869 -88524.6 
89 1.77e-05 -0.417657 0.118081 10683.4 10673.2 0.700822 -90090.9 
90 1.79e-05 -1.0578 0.0391747 10666.1 10679.7 -7.93457 -89714 
91 1.81e-05 -0.0268121 -0.00471801 10654 10675.1 -3.01545 -90086 
92 1.83e-05 -0.0927414 0.128082 10671.3 10675.8 -1.41949 -89034.5 
93 1.85e-05 0.200048 -0.0548908 10689.9 10679.1 -4.28532 -87600.4 
94 1.87e-05 -0.67607 -0.032223 10647.6 10677.8 -0.623817 -88475 
95 1.89e-05 -0.525261 -0.106878 10671.2 10677.2 -4.11975 -87317 
96 1.91e-05 -0.51099 -0.0183915 10682 10681.2 -1.78092 -88769.4 
97 1.93e-05 -0.111678 0.0211411 10672.5 10683.7 2.19838 -89019.7 
98 1.95e-05 -0.413299 -0.00639897 10665 10680.8 -0.30763 -86951.5 
99 1.97e-05 -0.282894 0.0785265 10660.7 10676.3 -4.14574 -90125.3 
100 1.99e-05 0.12293 -0.00627656 10680.2 10680.9 -3.00517 -89413.3 
101 2.01e-05 0.343297 0.063326 10678.7 10678.2 -1.18651 -89113.7 
102 2.03e-05 -0.0847705 -0.00982198 10695.4 10677.4 3.06196 -89309.9 
103 2.05e-05 -0.126039 0.00756538 10683.6 10682 1.48347 -87315.8 
104 2.07e-05 0.0414561 -0.0436941 10668.5 10680.4 -4.28592 -88049.5 
105 2.09e-05 0.0768655 0.000848181 10667.9 10675 2.25898 -88961.9 
106 2.11e-05 0.294371 0.0414759 10665.6 10679.5 -2.65011 -89079.1 
107 2.13e-05 0.35267 -0.0827974 10660.4 10676.2 -2.11513 -88532.6 
108 2.15e-05 0.714889 -0.025283 10685.3 10680.4 -3.68794 -88789.1 
109 2.17e-05 0.325831 0.0800957 10681.2 10677.4 6.09514 -90341.7 
110 2.19e-05 0.526337 -0.0127009 10683.9 10682 -1.69003 -88453.6 
111 2.21e-05 0.652414 0.127639 10696.1 10687.4 -0.491499 -93802.2 
112 2.23e-05 0.396988 0.0217399 10683.2 10683 4.97085 -89760.3 
113 2.25e-05 0.837535 -0.0289203 10670.9 10675.8 -3.21867 -89593.4 
114 2.27e-05 0.199298 0.0522127 10665.3 10680.3 0.581796 -89951.5 
115 2.29e-05 0.601085 -0.00254903 10682.2 10672 -2.1755 -89708.7 
116 2.31e-05 0.823682 0.0658856 10666.6 10679.8 -1.05972 -89053.3 
117 2.33e-05 0.55146 0.000331771 10679.3 10674.3 -2.02116 -89217.2 
118 2.35e-05 0.188675 0.0456065 10673.2 10680.9 -0.873321 -88859.3 
119 2.37e-05 0.375933 0.0202597 10679.8 10679 -4.28861 -90487.8 
120 2.39e-05 0.249074 -0.0346662 10712.2 10679.5 -4.0646 -89372.8 
121 2.41e-05 0.467478 -0.107289 10711.9 10679.8 -1.51263 -90393.1 
122 2.43e-05 0.40913 -0.0168441 10711 10679.5 -1.60719 -88212.5 
123 2.45e-05 0.571398 -0.0110309 10689.8 10679.8 0.781642 -90632 
124 2.47e-05 0.72238 0.0768148 10652.4 10674.7 -3.09971 -89648.6 
125 2.49e-05 0.417905 -0.0194285 10660.1 10676.8 0.260938 -87971.9 
126 2.51e-05 0.219473 -0.0928033 10623.8 10678.9 0.123592 -88019.7 
127 2.53e-05 0.130284 -0.0446034 10644.3 10679.5 3.50999 -89167.8 
128 2.55e-05 0.468984 -0.0257261 10674.2 10679.9 -1.96366 -90361.8 
129 2.57e-05 0.785529 -0.0268916 10672.3 10680.8 -0.779259 -89495.7 
130 2.59e-05 0.930791 0.114627 10679.6 10672.9 4.34377 -90159.8 
131 2.61e-05 1.21235 0.0645314 10693.5 10677.2 -0.398321 -90597.2 
132 2.63e-05 0.929387 -0.00860545 10651.8 10674.1 1.00394 -89775.8 
133 2.65e-05 0.843257 -0.0836435 10649.4 10684.8 -1.20094 -88168.3 
134 2.67e-05 0.884035 0.0117353 10657.3 10676.8 -2.97944 -89007.6 
135 2.69e-05 0.314724 0.0395945 10679.9 10680 -2.22026 -90971.9 
136 2.71e-05 0.69422 0.0127404 10654.9 10676.3 -0.942612 -89942.5 
137 2.73e-05 1.13167 -0.0530524 10688.2 10677.1 -3.12426 -90602.1 
138 2.75e-05 0.867337 0.0199911 10708.6 10680.4 5.02956 -91195.5 
139 2.77e-05 0.630043 0.0392073 10690.6 10672.4 3.1724 -90643.1 
140 2.79e-05 0.849457 0.00563742 10685.6 10678 2.79123 -89324.9 
141 2.81e-05 0.857748 0.0569752 10672.9 10677.2 -2.99964 -90865.6 
142 2.83e-05 0.806584 -0.0174671 10647.2 10672 -3.98688 -88955.3 
143 2.85e-05 1.05193 -0.0423547 10680.5 10681 3.15914 -89829.7 
144 2.87e-05 0.272461 0.0101312 10685 10681.7 0.124254 -88944.9 
145 2.89e-05 0.468975 -0.0971677 10703.7 10679.8 -2.40511 -89293.6 
146 2.91e-05 0.371093 0.0117068 10713 10674.3 1.93037 -89859.3 
147 2.93e-05 0.370994 0.020158 10686.8 10676.9 2.18788 -91144.7 
148 2.95e-05 0.619974 0.0932408 10705.5 10682.5 -1.56842 -89892.1 
149 2.97e-05 0.729265 -0.0886964 10723.7 10684.8 -0.289332 -89511.7 
150 2.99e-05 0.405992 -0.00467754 10712.3 10678.7 -0.235582 -89142.9 
151 3.01e-05 0.78606 0.0398102 10667.1 10680.6 -1.65234 -89452.7 
152 3.03e-05 0.916312 0.0474735 10708.9 10677.6 0.59592 -90492.7 
153 3.05e-05 0.95428 -0.0942081 10684.8 10677.9 -0.960631 -88098.3 
154 3.07e-05 0.684141 -0.0873269 10690.4 10681.7 -3.13606 -88464.3 
155 3.09e-05 0.554951 -0.0138251 10669.5 10674 -5.71588 -88607 
156 3.11e-05 0.97649 0.0440201 10678.4 10673.4 7.84364 -88765.1 
157 3.13e-05 0.542499 -0.0853707 10681.2 10680.3 -1.89735 -87904.9 
158 3.15e-05 1.39524 -0.127543 10705.3 10675.6 -2.43763 -88006 
159 3.17e-05 1.01207 -0.00121917 10673.8 10676.2 -3.16986 -88629.5 
160 3.19e-05 1.19715 0.00468473 10711.8 10680.4 -1.09681 -87258.3 
161 3.21e-05 1.18435 -0.0368677 10679.2 10676.6 1.72117 -88862 
162 3.23e-05 0.503511 -0.0111497 10684.9 10675.6 -1.14341 -88824.8 
163 3.25e-05 0.576507 -0.01679 10681.9 10680.6 1.71257 -88915.3 
164 3.27e-05 0.721782 0.0540878 10700.2 10675.4 -3.90699 -88869.9 
165 3.29e-05 0.600434 0.0417935 10657.9 10677.2 0.752673 -89599.2 
166 3.31e-05 0.681527 -0.0300478 10657.3 10675.3 -0.194114 -90644.8 
167 3.33e-05 0.741393 -0.0657616 10716.8 10678 -1.87967 -87742.8 
168 3.35e-05 0.206816 -0.0689147 10669.7 10676.7 2.77407 -88669.3 
169 3.37e-05 0.540629 -0.212126 10697.7 10677.6 -0.487043 -90138.1 
170 3.39e-05 0.645925 -0.00728272 10678.4 10676.6 -4.43118 -87953.3 
171 3.41e-05 0.638711 -0.0049096 10696.7 10678.7 0.717926 -88648.5 
172 3.43e-05 -0.0307735 -0.0494341 10668.2 10681 -1.49665 -87907 
173 3.45e-05 -0.186387 0.0072658 10671 10680.5 -1.74372 -90550.7 
174 3.47e-05 -0.020605 -0.109728 10664.5 10673.6 1.58737 -88023.5 
175 3.49e-05 -0.368973 -0.0470071 10663.2 10671.4 -3.0023 -89056.1 
176 3.51e-05 0.0771744 -0.0463277 10644.6 10681.7 3.8351 -90589.1 
177 3.53e-05 0.158294 -0.0554829 10696.6 10681.3 2.33104 -89164.9 
178 3.55e-05 0.0339057 0.0201682 10692.7 10679.5 1.062 -88610.6 
179 3.57e-05 0.164902 0.0156059 10672.4 10671 1.01394 -91567.4 
180 3.59e-05 -0.0394769 -0.0596188 10679.7 10684.2 0.0542516 -87818.2 
181 3.61e-05 -0.456073 -0.00594493 10647.6 10677.5 -2.57057 -88923.1 
182 3.63e-05 -0.0358632 -0.0190881 10669.8 10675 -4.72216 -90354.3 
183 3.65e-05 -0.0107513 0.0170095 10679.3 10677.2 1.81373 -88858.6 
184 3.67e-05 0.183559 -0.157322 10644.6 10676.5 2.79557 -88844.1 
185 3.69e-05 0.688012 -0.0379782 10674.4 10677.3 -0.675195 -89597 
186 3.71e-05 0.438736 -0.0248592 10678 10680.5 0.759265 -90204.9 
187 3.73e-05 0.400786 -0.0389022 10683.6 10677.2 1.25981 -88880.9 
188 3.75e-05 0.140435 -0.00480458 10672.8 10678.9 3.55993 -89478.4 
189 3.77e-05 -0.314549 0.0365428 10657 10675.9 -2.54683 -90449.7 
190 3.79e-05 0.381966 0.0728338 10660 10675 -1.80932 -88810.8 
191 3.81e-05 -0.539095 -0.0892501 10653.4 10671.8 0.3977 -90239.5 
192 3.83e-05 -0.137503 -0.0584558 10685.9 10682.6 -1.23462 -89694.7 
193 3.85e-05 -0.100595 0.102374 10655.3 10678.6 -0.20103 -91118 
194 3.87e-05 0.0710032 0.0870213 10674.6 10680 -5.41506 -90632.8 
195 3.89e-05 0.227987 -0.000443253 10734.5 10683.3 2.98039 -89115.1 
196 3.91e-05 -0.609739 -0.00477203 10698.5 10677.8 0.103649 -86148.3 
197 3.93e-05 -0.435785 0.0500509 10699.6 10678.2 1.55276 -89244.2 
198 3.95e-05 -0.58919 0.00244519 10704.1 10679.1 3.3388 -85389.2 
199 3.97e-05 -0.618996 0.0766921 10702.2 10676.1 2.3847 -86229.9 
200 3.99e-05 -0.279466 -0.103994 10733.7 10683.6 3.54077 -89005.4 
