ITEM: TIMESTEP
100000
ITEM: NUMBER OF CELLS
200
ITEM: BOX BOUNDS pp ss pp
0 0.0001
0 4e-05
0 0.0001
ITEM: CELLS id yc f_vel[1] f_vel[2] f_mom[1] f_mom[2] f_mom[3] f_q[*] 
1 1e-07 0.92461 -0.183938 10722.2 10686.5 -13.1672 -78182.9 
2 3e-07 0.78149 0.0827418 10743.1 10661.2 -5.32584 -88426.2 
3 5e-07 0.772024 -0.0613245 10752 10683.9 -18.6741 -84621 
4 7e-07 0.769956 0.104212 10702.1 10665.2 -7.5568 -85378.2 
5 9e-07 1.52059 0.154615 10676.2 10665.8 2.50926 -91808.6 
6 1.1e-06 2.61423 0.0705681 10626.9 10653.2 -3.48958 -88416.9 
7 1.3e-06 2.29066 0.128386 10677 10666.7 -6.59418 -89670.8 
8 1.5e-06 1.05755 0.0393878 10656.9 10667.7 -2.02205 -88927.1 
9 1.7e-06 0.855009 -0.077073 10582.8 10644.1 1.30795 -86080.3 
10 1.9e-06 0.339903 -0.0334301 10646.4 10651.4 3.29877 -87145.4 
11 2.1e-06 0.524132 0.0844646 10614.9 10664.7 -8.26149 -89778.2 
12 2.3e-06 1.30585 0.168475 10657.9 10664 -13.3058 -89867.6 
13 2.5e-06 1.31973 -0.0710578 10634.9 10657.6 -5.11626 -82743.8 
14 2.7e-06 2.03705 0.160052 10654.1 10674.1 -5.09835 -89595 
15 2.9e-06 1.59881 -0.0817659 10658.4 10658.9 1.21923 -85296.5 
16 3.1e-06 1.39671 0.0507525 10686.7 10680.4 -6.41333 -89394.1 
17 3.3e-06 0.447921 -0.0541544 10629.8 10665.9 -0.962907 -87780.1 
18 3.5e-06 1.69822 0.0294505 10663.4 10652.7 -24.2398 -87343.5 
19 3.7e-06 2.29516 0.0126178 10660.9 10684.2 -8.03592 -85595.9 
20 3.9e-06 1.87863 -0.0431209 10607.5 10673.1 -2.27681 -83489.7 
21 4.1e-06 2.21261 -0.048934 10667.5 10652.3 -17.3285 -86590.8 
22 4.3e-06 1.75646 0.087109 10729.8 10675.1 -3.15822 -88380.1 
23 4.5e-06 2.94082 0.212867 10725.4 10662.8 -4.20224 -89203.6 
24 4.7e-06 2.3424 0.120534 10623.9 10656.3 6.85938 -87407.7 
25 4.9e-06 2.83296 0.0873982 10645.1 10671.7 -8.93139 -92145.8 
26 5.1e-06 3.37676 -0.239193 10667.5 10656.8 -3.06228 -86112.6 
27 5.3e-06 2.82418 0.0991241 10612.8 10651.7 -3.90241 -86888.7 
28 5.5e-06 2.85252 -0.0850192 10641.3 10659.7 -14.1562 -88362.5 
29 5.7e-06 3.31085 0.0448462 10596.5 10654.4 -6.5366 -90963.4 
30 5.9e-06 2.5498 -0.138222 10627.8 10639.2 2.9974 -85662 
31 6.1e-06 2.84415 -0.0550207 10679.2 10657.8 3.57205 -84903.4 
32 6.3e-06 3.45272 0.0262816 10659.8 10685.5 3.61306 -85996.8 
33 6.5e-06 2.18575 -0.298055 10646.3 10662.3 -18.9959 -86842.2 
34 6.7e-06 2.76985 -0.0719038 10685.2 10668.2 8.33916 -90528.9 
35 6.9e-06 2.4741 0.274584 10668.8 10657.5 -2.04639 -85908.3 
36 7.1e-06 2.55433 -0.0490655 10574.9 10661.9 2.63219 -90769.5 
37 7.3e-06 2.57653 0.0312773 10645.8 10665.6 -7.59851 -87352.4 
38 7.5e-06 3.79744 -0.00251604 10641.1 10673.1 -8.78844 -89621.6 
39 7.7e-06 2.49929 -0.176702 10664.5 10664.3 1.18837 -83682.4 
40 7.9e-06 1.67736 0.0687351 10625.3 10664.2 0.866804 -86847.3 
41 8.1e-06 2.36319 -0.10069 10724.7 10664.3 17.7812 -87304 
42 8.3e-06 1.30196 -0.265245 10669.9 10661.8 -1.35452 -84796.6 
43 8.5e-06 2.08922 -0.159009 10619.5 10670 8.71571 -87460.4 
44 8.7e-06 2.40407 -0.187436 10617.3 10664.8 -0.117823 -84150.2 
45 8.9e-06 3.31931 0.102442 10699.7 10661.2 -11.2837 -84094.5 
46 9.1e-06 3.08113 -0.0797058 10684.2 10663.5 0.731387 -81600.5 
47 9.3e-06 2.74659 -0.0501827 10653.8 10667.2 -1.58456 -87201.3 
48 9.5e-06 2.42807 0.0480994 10594.1 10669.6 2.83032 -86382.6 
49 9.7e-06 2.36317 0.106943 10660.9 10655.9 0.775022 -82204.9 
50 9.9e-06 2.20816 0.0464877 10677 10658 -4.92037 -86851.1 
51 1.01e-05 2.0233 -0.0864546 10650.5 10668.2 -3.88573 -87002.4 
52 1.03e-05 1.45506 -0.160757 10653.7 10670.2 -4.79108 -86621.1 
53 1.05e-05 1.44147 -0.105165 10679 10676.9 0.556142 -85870.9 
54 1.07e-05 1.81626 0.0911034 10661.8 10664.9 3.18492 -87105.5 
55 1.09e-05 2.19033 -0.160418 10642.1 10668.8 8.68729 -85036.1 
56 1.11e-05 3.26557 0.0235115 10687.2 10652.6 13.6355 -92269.4 
57 1.13e-05 2.24748 0.131594 10630.5 10672 -2.0082 -86618.5 
58 1.15e-05 1.20013 0.0721786 10700.7 10659.1 7.86981 -89446.3 
59 1.17e-05 1.59615 -0.17093 10693.2 10679 -2.483 -87475.2 
60 1.19e-05 0.00979455 0.172578 10653.7 10663.8 4.00242 -85537.4 
61 1.21e-05 0.360275 -0.167225 10642.4 10662.2 -4.69143 -88881.4 
62 1.23e-05 1.24766 0.0591791 10629.7 10663.3 1.21013 -88264.2 
63 1.25e-05 1.05465 -0.0776524 10609.2 10659.1 0.25161 -87753.1 
64 1.27e-05 1.05357 -0.0846071 10641.3 10674.4 3.42503 -83079.2 
65 1.29e-05 0.479662 0.0303585 10714 10674 -0.773669 -86241.4 
66 1.31e-05 1.6848 -0.258456 10681.6 10665.2 -2.49103 -84683 
67 1.33e-05 1.8776 0.125292 10745.4 10676 2.47303 -90947.2 
68 1.35e-05 2.01892 -0.306316 10679.6 10668.2 11.4447 -79239.9 
69 1.37e-05 2.58709 -0.129998 10654.4 10665.5 0.417613 -87531.6 
70 1.39e-05 1.14761 -0.082637 10664.7 10654.5 4.97065 -85619 
71 1.41e-05 1.34725 0.0118671 10689.4 10662.2 5.7107 -93498.3 
72 1.43e-05 0.195728 0.072789 10692.6 10669.8 -3.05215 -83797.1 
73 1.45e-05 0.883478 -0.108669 10743.1 10667.2 7.3272 -86547.1 
74 1.47e-05 0.425714 0.326823 10659.4 10674.8 4.1694 -87035.8 
75 1.49e-05 0.296915 -0.120506 10696.8 10667.9 2.60939 -85440.8 
76 1.51e-05 0.169296 -0.0377124 10738.8 10664.1 -11.7261 -84098 
77 1.53e-05 1.96304 -0.0657988 10660.3 10669.1 -2.59045 -89186.5 
78 1.55e-05 0.998699 -0.189256 10603 10671.9 -0.693385 -84909.6 
79 1.57e-05 0.691235 0.0862568 10621.4 10652.6 -0.150515 -87765 
80 1.59e-05 1.52858 -0.0418523 10650.4 10661.1 -15.968 -87628.9 
81 1.61e-05 1.45862 -0.18642 10675.4 10670.6 -1.47049 -90725.5 
82 1.63e-05 0.907779 0.053994 10724.2 10678.1 -6.68987 -86843.4 
83 1.65e-05 0.495798 0.0647396 10713.4 10666.9 -2.41199 -87841 
84 1.67e-05 1.60133 -0.106743 10620.8 10679.9 4.33616 -89927.9 
85 1.69e-05 1.32676 -0.0176644 10659.3 10663.6 0.056256 -91111.7 
86 1.71e-05 1.04851 -0.145836 10698.7 10653.2 -8.2609 -88167.5 
87 1.73e-05 1.3419 -0.0384629 10700.1 10669.7 1.34579 -89512.4 
88 1.75e-05 2.25813 -0.138155 10699.5 10670.2 -8.2488 -90685.1 
89 1.77e-05 0.91825 -0.239292 10658.6 10661.6 -15.0977 -83873.2 
90 1.79e-05 1.18333 0.115164 10689.1 10670.5 -3.65063 -88096.5 
91 1.81e-05 0.689168 -0.206698 10677.4 10666 4.82807 -88312.6 
92 1.83e-05 0.695794 0.100173 10590 10661 -1.56308 -89930 
93 1.85e-05 1.54153 -0.0177654 10605.5 10659.7 -6.47397 -86297 
94 1.87e-05 1.8499 -0.000869176 10624.6 10670.9 -3.60805 -84645.6 
95 1.89e-05 1.15633 0.194658 10645.9 10661.1 0.107083 -89613.1 
96 1.91e-05 0.787043 -0.179663 10614.4 10677.5 -5.91653 -85435.8 
97 1.93e-05 1.33461 -0.178026 10571.1 10658.6 -7.30956 -81964 
98 1.95e-05 0.759584 -0.111845 10570 10667.6 -7.99942 -89940.2 
99 1.97e-05 0.138901 -0.0346649 10622.7 10663.3 3.51577 -90894.1 
100 1.99e-05 0.989751 -0.225687 10638.7 10652.1 -11.5535 -87462 
101 2.01e-05 0.735546 0.0141781 10656.9 10663.4 3.27792 -83395.8 
102 2.03e-05 1.46315 -0.119511 10643.5 10652.4 -2.9695 -88070 
103 2.05e-05 0.541364 -0.0932403 10664.1 10665.7 5.10514 -91808 
104 2.07e-05 1.441 -0.137475 10614.2 10651.1 -2.17461 -89249.5 
105 2.09e-05 1.47257 -0.167273 10649.5 10668.3 -5.05033 -88379.4 
106 2.11e-05 0.804809 0.190948 10620.5 10646.2 -9.48758 -91889.8 
107 2.13e-05 0.583429 0.103181 10655.2 10662.8 -2.324 -84699.5 
108 2.15e-05 0.928282 -0.0756403 10630.3 10665.3 3.32495 -88458.3 
109 2.17e-05 0.20063 -0.180329 10672.6 10657.8 -3.29833 -87059.3 
110 2.19e-05 -0.827128 -0.0675916 10649.9 10671.5 9.23894 -88318.5 
111 2.21e-05 -1.18441 -0.0860142 10653.9 10657.7 -4.5391 -85054.8 
112 2.23e-05 -1.74594 -0.0278603 10661.7 10665.7 4.04401 -87612.8 
113 2.25e-05 -0.440107 -0.0968885 10647.9 10654.6 4.06018 -87042.2 
114 2.27e-05 -0.029705 -0.121474 10719.2 10657.2 -6.20251 -89622.8 
115 2.29e-05 -0.510055 -0.267603 10701.7 10655.9 6.26603 -86216.5 
116 2.31e-05 -0.878761 -0.107599 10674.2 10673.1 -1.06938 -86865.5 
117 2.33e-05 0.228008 0.044626 10674.3 10666.4 0.821692 -89977.6 
118 2.35e-05 -0.256038 -0.144882 10650.5 10660.8 -5.07283 -83840.4 
119 2.37e-05 -0.0657333 -0.103316 10624.9 10664.1 1.9773 -96183.6 
120 2.39e-05 -1.09727 0.0140258 10690.1 10666.6 2.82707 -86078.8 
121 2.41e-05 0.786965 -0.287754 10651.8 10649.3 1.17098 -84953.2 
122 2.43e-05 1.09267 0.225755 10659.1 10650.6 -6.86107 -88317.4 
123 2.45e-05 -0.273824 -0.0483912 10676.1 10663.6 11.7886 -92579.1 
124 2.47e-05 -1.40258 -0.0650461 10673.9 10669.6 -15.5163 -92208.9 
125 2.49e-05 0.278965 -0.244803 10655.2 10644.8 11.3821 -84430.8 
126 2.51e-05 0.265258 0.0460292 10644.4 10677.4 -13.0473 -88900.9 
127 2.53e-05 0.0846892 -0.0585587 10677 10652.2 1.66324 -87589.7 
128 2.55e-05 -0.861234 -0.320108 10641.3 10657 -6.80059 -85723.2 
129 2.57e-05 -1.32964 0.0811066 10739.6 10665.6 2.40741 -89194.5 
130 2.59e-05 -1.213 0.163977 10631.6 10675.7 -3.81578 -89215.1 
131 2.61e-05 -0.958485 -0.16146 10625.3 10656.8 3.50113 -86773.6 
132 2.63e-05 -0.498252 0.0399785 10683.4 10676.3 3.41092 -88344.4 
133 2.65e-05 -0.117093 0.179873 10599.7 10650.5 5.12474 -87666.2 
134 2.67e-05 -1.09233 0.0134325 10609.8 10677.3 -2.22212 -86088.7 
135 2.69e-05 -0.47275 0.00222946 10608.7 10659.6 2.25548 -86886.2 
136 2.71e-05 -0.0693859 0.103502 10627.3 10659.8 4.31422 -89473.7 
137 2.73e-05 -0.913524 -0.0446926 10672.5 10660.4 -5.17047 -87001.2 
138 2.75e-05 -1.2055 -0.0279929 10657.8 10667.4 -8.50868 -89716 
139 2.77e-05 -2.00578 -0.0655346 10651.4 10668 -2.62007 -89230.3 
140 2.79e-05 -0.419116 -0.0175094 10671.8 10655.8 -3.81661 -91303.4 
141 2.81e-05 -0.0661332 0.264153 10680.9 10657.6 -10.38 -95077.3 
142 2.83e-05 0.147906 -0.0331925 10632.4 10652.8 1.93248 -95355.2 
143 2.85e-05 0.438716 0.0764088 10672.2 10658.1 -1.27707 -89079.6 
144 2.87e-05 -0.620102 0.213719 10660.4 10655.3 -5.04558 -88782.5 
145 2.89e-05 -0.621552 0.0773806 10593.2 10661 -3.56836 -92659.4 
146 2.91e-05 -0.860084 -0.105748 10650.3 10657.6 -4.41594 -88280.2 
147 2.93e-05 -0.0261573 -0.252586 10700.9 10653 -12.1096 -87115.1 
148 2.95e-05 -0.506503 0.192575 10625.3 10664.1 -7.7033 -85409.7 
149 2.97e-05 -1.00701 -0.140876 10620.6 10658.6 -0.932603 -93402.4 
150 2.99e-05 -0.820682 -4.88275e-05 10700.9 10663.3 -1.86605 -85120.7 
151 3.01e-05 -0.795675 0.0913517 10669.9 10663.7 -2.73432 -87362.9 
152 3.03e-05 -0.135435 0.0273158 10661.6 10666.1 -8.47535 -88051.4 
153 3.05e-05 -0.422593 0.183031 10627.7 10658.4 -5.17935 -87825.2 
154 3.07e-05 -0.0288511 -0.0467046 10688.8 10679.8 1.83353 -84760 
155 3.09e-05 0.00259556 0.00662059 10653.4 10653.1 4.26741 -90204.6 
156 3.11e-05 -0.0940206 0.0597143 10630.6 10659.7 3.57886 -90314.3 
157 3.13e-05 -0.117527 -0.139797 10611.9 10652.7 4.90541 -90405.1 
158 3.15e-05 -0.106731 0.175907 10655.9 10665.4 -3.1258 -91820.9 
159 3.17e-05 -0.305466 0.0702345 10564.8 10649.9 -4.80267 -87468.9 
160 3.19e-05 0.0914481 -0.0972222 10589.6 10665.5 -0.125233 -85221.5 
161 3.21e-05 -0.0563183 0.253883 10598.1 10666.3 1.96146 -93673.9 
162 3.23e-05 -0.133861 0.175064 10623.1 10675.1 -6.36518 -87434.3 
163 3.25e-05 -1.09318 -0.0426687 10624.7 10658 -10.6247 -90504.5 
164 3.27e-05 -0.257107 0.0410367 10626.2 10666.3 0.908476 -90363.4 
165 3.29e-05 -0.250464 0.102926 10603.1 10680.2 -1.29021 -90795.5 
166 3.31e-05 -0.511738 0.253313 10592.3 10660.7 -7.7213 -90756.1 
167 3.33e-05 -0.849978 -0.103948 10585.4 10666.5 2.92673 -87805.8 
168 3.35e-05 -0.181394 -0.0464883 10639.4 10660.6 0.255866 -89039.2 
169 3.37e-05 -0.267173 0.181543 10635 10668.7 -5.59161 -88327.6 
170 3.39e-05 -0.781353 0.073184 10593.9 10659.1 8.24552 -84965.5 
171 3.41e-05 -2.20634 0.0818508 10590.5 10667.3 -7.27472 -88107 
172 3.43e-05 -0.55711 0.0102978 10593.5 10662.5 1.16983 -88937 
173 3.45e-05 -0.267598 0.195665 10623.6 10669 -4.60035 -90224.1 
174 3.47e-05 0.0701715 -0.0929522 10669.8 10653.3 5.59141 -94092.6 
175 3.49e-05 0.59684 0.148697 10637.3 10650 -10.377 -87088.7 
176 3.51e-05 -0.454231 0.0551924 10644.3 10660.1 1.11675 -88937.7 
177 3.53e-05 0.957904 0.0726792 10630.8 10653.3 0.434793 -88149.6 
178 3.55e-05 0.368227 -0.145302 10670.5 10653 0.482535 -88904.4 
179 3.57e-05 -1.00785 -0.0591461 10645.8 10669.3 -4.16591 -86059.2 
180 3.59e-05 -0.464192 0.122653 10619.7 10660 -13.0333 -89300 
181 3.61e-05 0.827188 0.0982432 10598.1 10651 0.571805 -87814.5 
182 3.63e-05 1.73978 -0.236921 10578.3 10645.1 -8.10082 -90868.7 
183 3.65e-05 0.977532 0.131216 10625 10671.9 -1.69672 -88881 
184 3.67e-05 0.0659055 -0.0207756 10646.4 10653.9 -3.30912 -91722.7 
185 3.69e-05 -0.765887 -0.137524 10607.9 10669.7 4.59099 -81895.6 
186 3.71e-05 -1.50804 -0.0860292 10634.3 10656.9 -7.10347 -89599.6 
187 3.73e-05 -0.379485 0.270341 10664.1 10667 0.0219423 -92105.6 
188 3.75e-05 -1.85366 0.0700618 10644.7 10661.9 -6.5137 -84339.1 
189 3.77e-05 -2.06576 0.068494 10652.8 10668.3 2.76433 -88394.7 
190 3.79e-05 -1.91868 -0.0785655 10737.8 10655.1 -2.99504 -84740.6 
191 3.81e-05 -0.630856 0.304314 10628.8 10667.7 -0.715029 -85589.3 
192 3.83e-05 -0.486769 -0.0284128 10627.4 10679.7 -9.7694 -88132.7 
193 3.85e-05 -1.77584 -0.0839898 10725.7 10659.8 10.5898 -83603.2 
194 3.87e-05 -1.96654 0.0685036 10718.7 10667.9 2.43907 -86196.3 
195 3.89e-05 -1.50296 0.0591639 10698.6 10651.3 1.88976 -90314.4 
196 3.91e-05 -1.85663 0.10959 10690.4 10681.4 4.9808 -87267.9 
197 3.93e-05 -1.90648 0.225466 10673.4 10666.8 3.31081 -92496.3 
198 3.95e-05 -0.388647 -0.213437 10586.8 10667.1 -2.37101 -86089.8 
199 3.97e-05 -0.264752 0.0328985 10693.3 10662.8 1.67717 -85309.1 
200 3.99e-05 -1.1909 0.258205 10701.5 10672.7 9.06023 -90267.7 
