ITEM: TIMESTEP
100000
ITEM: NUMBER OF CELLS
200
ITEM: BOX BOUNDS pp ss pp
0 0.0001
0 4e-05
0 0.0001
ITEM: CELLS id yc f_vel[1] f_vel[2] f_mom[1] f_mom[2] f_mom[3] f_q[*] 
1 1e-07 0.315467 0.170554 11925.7 12054.3 -12.28 -83516.1 
2 3e-07 -0.242104 -1.07674 11924.8 11986 7.75306 -71361.6 
3 5e-07 -0.514794 -0.726316 11961.2 11975.8 4.78531 -71742.1 
4 7e-07 -0.47204 -0.381964 11907 11932.5 5.77789 -82170.2 
5 9e-07 -1.83856 -0.370843 11854.1 11935.6 6.31499 -87405.9 
6 1.1e-06 -2.29886 -0.0795096 11918.4 11979.6 -11.9863 -85657.7 
7 1.3e-06 -0.590121 -0.501526 11910.1 11960.6 -8.70388 -80969.3 
8 1.5e-06 -0.173323 -0.352685 12002.9 11944.6 -22.6502 -85765.4 
9 1.7e-06 -1.00117 0.0385276 11915.7 11918.1 10.0618 -81733.9 
10 1.9e-06 -0.463494 -0.395536 11985.4 12025.3 -3.7668 -80759.2 
11 2.1e-06 -0.194615 0.308196 11914.1 11928.7 -23.0941 -83528.5 
12 2.3e-06 0.690356 -0.234904 11920.8 11976.5 -54.9644 -81458.3 
13 2.5e-06 2.30366 0.107738 11903.1 11976.9 -2.44762 -85116.6 
14 2.7e-06 2.08609 0.370428 11872.5 11940.1 -16.1465 -86171.3 
15 2.9e-06 2.81136 -0.10665 11929.5 11962.6 4.06371 -81695.3 
16 3.1e-06 2.10514 0.0698933 11829.6 11936.3 -1.39271 -87714.5 
17 3.3e-06 1.85226 -0.422982 11853.4 11963.1 11.6517 -80953.7 
18 3.5e-06 3.75322 -0.617651 11920.9 11935.9 13.9212 -78855.3 
19 3.7e-06 2.11948 0.128381 11926.1 11935.6 6.01265 -83529.9 
20 3.9e-06 1.06376 -0.199569 12037.7 11960.1 2.78369 -84546 
21 4.1e-06 1.23562 0.0702195 11889.7 11936.9 -19.1153 -87538 
22 4.3e-06 1.37697 -0.102015 11919.2 11961.8 26.4695 -83058.1 
23 4.5e-06 1.2572 -0.0825311 11903.7 11962 10.1759 -86398.2 
24 4.7e-06 2.43346 0.0821362 11917.9 11966.4 -16.4685 -85861.5 
25 4.9e-06 4.11009 -0.45722 11896.7 11953.6 -3.20062 -77148.3 
26 5.1e-06 3.38176 -0.241423 11924 11958.5 -9.13194 -82487.3 
27 5.3e-06 2.60092 -0.605688 11880.9 11943.3 -4.58136 -81388.9 
28 5.5e-06 3.0813 -0.0207683 11925.3 11957.3 -17.1481 -82736.8 
29 5.7e-06 1.62049 -0.223569 11990.4 11995.5 -12.2797 -83592.6 
30 5.9e-06 2.77064 -0.539868 11892.7 11950.8 15.7921 -80031.5 
31 6.1e-06 2.48923 -0.231884 11978.1 11943.1 5.12367 -88537 
32 6.3e-06 1.3768 -0.727129 11998.8 11977.9 -1.1703 -78966.5 
33 6.5e-06 2.23489 -0.247741 11833.4 11898.5 -19.6182 -80417.2 
34 6.7e-06 1.42434 -0.293305 11969.2 11968.6 -15.7661 -78009.5 
35 6.9e-06 1.23526 -0.349923 11944.9 11933.1 -0.745105 -81005.7 
36 7.1e-06 -0.0867798 -0.211546 11968.2 11932 -11.3883 -80650.2 
37 7.3e-06 0.713811 -0.323782 11980.9 11964.7 2.95589 -83898.6 
38 7.5e-06 0.340196 0.0126556 11881.8 11949.7 4.61154 -88357.7 
39 7.7e-06 0.30536 -0.23405 11925.9 11948.3 11.374 -81438.4 
40 7.9e-06 1.24906 0.500628 11895.9 11962.8 -9.17076 -88347 
41 8.1e-06 1.94696 -0.266485 11924.2 11944.2 0.0141132 -83623 
42 8.3e-06 2.15764 -0.210863 11979.8 11940.9 2.17499 -93852.5 
43 8.5e-06 1.19492 -0.722483 11915.5 11944.4 -16.8864 -74021.9 
44 8.7e-06 1.46265 -0.438641 11962.6 11932.1 -16.4391 -76656.8 
45 8.9e-06 1.55737 -0.515112 11942 11960.1 14.7335 -84081.9 
46 9.1e-06 2.61358 -0.705207 11898.1 11949.8 7.77205 -83515.9 
47 9.3e-06 1.32411 -0.428727 11981.9 11953.5 -8.64461 -78610.6 
48 9.5e-06 0.41158 -0.000265132 11986.3 11951.8 -1.08 -90082.9 
49 9.7e-06 1.7158 0.117955 11985.8 11943.6 16.2424 -87287 
50 9.9e-06 0.130929 -0.0195412 11977.7 11960.7 1.1185 -82517 
51 1.01e-05 0.658632 -0.201088 11855 11935.5 -9.57164 -78779.8 
52 1.03e-05 1.08485 -0.399061 11869.8 11915.6 5.018 -84615.9 
53 1.05e-05 1.00446 0.129724 11937.2 11953.2 -16.4696 -90337.8 
54 1.07e-05 1.15889 -0.464981 11984.8 11963.3 5.16958 -78316.3 
55 1.09e-05 1.22164 -0.154487 11931.4 11916.6 15.7448 -83875 
56 1.11e-05 1.32932 0.0777001 11879.3 11945 -15.4287 -85916.4 
57 1.13e-05 1.95455 0.177193 11867.7 11964.1 14.2491 -86377.8 
58 1.15e-05 0.928473 0.0912447 11865.9 11929.2 -16.8277 -83178.3 
59 1.17e-05 2.31646 -0.356046 11897.3 11913.4 2.09162 -85646.8 
60 1.19e-05 3.38144 -0.309031 11923 11916.5 0.126525 -84714.6 
61 1.21e-05 2.68267 -0.10807 11977.6 11928.8 -0.685601 -82351.8 
62 1.23e-05 3.53512 0.167313 11908.5 11917.6 16.7279 -89202.3 
63 1.25e-05 3.70464 -0.0262772 12008.2 11937.4 16.5897 -85968.1 
64 1.27e-05 2.54317 -0.642392 11925.1 11921.5 -10.9371 -72850.8 
65 1.29e-05 2.63551 0.432257 11895.9 11930.5 22.799 -93046.8 
66 1.31e-05 2.98764 -0.154385 11846.5 11935.2 3.5552 -85467.7 
67 1.33e-05 2.58149 -0.285285 11851.8 11942.7 -1.68366 -87643.3 
68 1.35e-05 3.32638 0.190507 11921.9 11934.3 10.617 -92449.9 
69 1.37e-05 2.16871 -0.0665609 11940.7 11946.4 19.8142 -91643.9 
70 1.39e-05 2.40543 -0.302885 11921.4 11913 -0.132255 -87978.2 
71 1.41e-05 0.668384 -0.165457 11916.9 11948.2 29.3792 -83282.4 
72 1.43e-05 1.70064 -0.228821 11914.5 11953.9 -1.954 -80809.2 
73 1.45e-05 2.20833 0.276405 11926.2 11923.8 -1.20543 -90213.1 
74 1.47e-05 1.39034 -0.115007 11974.9 11964.5 7.42602 -83934.2 
75 1.49e-05 1.2569 -0.338536 11901.3 11920.7 15.0847 -84940.2 
76 1.51e-05 0.0565959 -0.0619751 12000.8 11932.8 -16.8614 -89331.2 
77 1.53e-05 1.78926 0.506048 11920.3 11948.4 -0.820698 -96454.9 
78 1.55e-05 2.52357 0.0756401 11872.1 11917 8.28404 -88852.1 
79 1.57e-05 1.03348 -0.0873357 11901.5 11929.8 4.10701 -87285.6 
80 1.59e-05 1.18814 -0.135723 11825 11895.5 13.5791 -83855.9 
81 1.61e-05 2.37175 0.0960983 11850.4 11916.8 11.5987 -95213.4 
82 1.63e-05 2.12656 -0.097153 11897.2 11929.7 -1.25145 -87597.6 
83 1.65e-05 2.99197 -0.535915 11875 11934.9 -12.9314 -80673.8 
84 1.67e-05 0.895501 -0.0651013 11958.9 11926.4 1.16309 -92600.3 
85 1.69e-05 1.88629 -0.273311 11937.8 11926 18.1369 -85072.2 
86 1.71e-05 2.39477 -0.0406708 11949.7 11914.3 17.7725 -90482.5 
87 1.73e-05 2.74404 -0.342302 11948.9 11910.1 23.3029 -82733 
88 1.75e-05 1.56937 -0.0942921 11968.5 11916 23.7663 -89435.1 
89 1.77e-05 1.34098 0.0322207 11988.2 11896.1 -17.0429 -85373.9 
90 1.79e-05 2.46978 -0.240228 11943.5 11900.8 10.1702 -85142.3 
91 1.81e-05 2.51357 -0.314033 11946.8 11935.5 16.6107 -90382.5 
92 1.83e-05 1.67169 -0.627867 11886.7 11923.9 15.3345 -81616.9 
93 1.85e-05 1.25017 0.39231 11907 11940 38.1528 -93086.1 
94 1.87e-05 1.16036 -0.0818648 11968.4 11911.1 15.0383 -85397.9 
95 1.89e-05 0.492725 -0.1805 11917.1 11909.2 4.3004 -85925.3 
96 1.91e-05 0.502178 0.150366 11815.5 11887 44.0204 -89475.2 
97 1.93e-05 0.574267 -0.00446315 11912.2 11936.9 7.93335 -90814.1 
98 1.95e-05 -0.174281 -0.495973 11887.1 11925.4 11.1414 -85438.8 
99 1.97e-05 0.709509 -0.178091 11890.5 11911.3 15.5941 -85567.9 
100 1.99e-05 -0.772998 -0.320772 11896 11924.5 -5.56149 -93480.5 
101 2.01e-05 -0.467817 -0.374751 11902.9 11930.8 11.8635 -86545.1 
102 2.03e-05 -0.994873 -0.358066 11912.6 11903.9 13.0492 -85090.9 
103 2.05e-05 0.1308 -0.0222018 11891.1 11892.2 1.03779 -94834.3 
104 2.07e-05 1.74623 0.293896 11974.8 11932.2 30.7562 -91932.4 
105 2.09e-05 -0.102039 -0.0855966 11980.9 11924.5 25.3245 -93317.9 
106 2.11e-05 0.633376 -0.283944 11970 11928.8 15.2061 -78751.8 
107 2.13e-05 -0.237763 -0.154943 11937.9 11907.4 -2.0616 -89008.3 
108 2.15e-05 0.808424 -0.706144 11988.3 11900.5 -4.81213 -84289.9 
109 2.17e-05 -1.18263 -0.381289 11881.3 11903.2 11.1226 -82793.9 
110 2.19e-05 -0.0945697 0.288392 11872.4 11899.3 -10.0227 -90674.1 
111 2.21e-05 0.255479 -0.184006 11951.4 11924.8 4.4616 -89889 
112 2.23e-05 1.33519 -0.0764333 11812.6 11899.3 -11.4576 -84087.2 
113 2.25e-05 0.563342 -0.267173 11862.8 11896.6 -6.63234 -82635 
114 2.27e-05 0.540642 -0.0393339 11905.6 11911.4 13.643 -92620.9 
115 2.29e-05 -0.71939 -0.363779 11856.3 11885.5 23.7334 -82634.5 
116 2.31e-05 2.09493 0.0349712 11863.1 11918.8 5.03814 -91344.5 
117 2.33e-05 1.96814 0.270984 11871.5 11901.6 -4.81845 -86527.4 
118 2.35e-05 0.750075 -0.166765 11890.9 11919.7 -9.366 -91691.3 
119 2.37e-05 -0.131872 -0.053467 11927.3 11911.6 -12.6326 -91981.5 
120 2.39e-05 1.72978 0.236916 11913.2 11900.9 -5.26751 -93493.6 
121 2.41e-05 0.266639 -0.329719 11985.9 11926 -2.55855 -81689.7 
122 2.43e-05 1.19325 -0.766059 11880.6 11906.4 17.1616 -82084.2 
123 2.45e-05 2.23018 0.268639 11870.3 11908.9 11.4777 -91998.2 
124 2.47e-05 0.884053 -0.862367 11881.2 11905.4 -11.6059 -89705.9 
125 2.49e-05 1.88513 0.206983 11869.1 11910.7 -20.2637 -86523.8 
126 2.51e-05 1.70271 0.0951718 11864 11907.8 8.69541 -87861 
127 2.53e-05 0.918465 0.0487919 11947.3 11922.6 -0.698835 -90666.6 
128 2.55e-05 0.797898 -0.321627 11941.7 11914.4 -7.50674 -83463.7 
129 2.57e-05 1.10024 -0.242206 11956.5 11914.4 -2.47949 -83702.5 
130 2.59e-05 1.41297 -0.0856222 11926.2 11911.5 4.51944 -87779.1 
131 2.61e-05 0.626847 -0.363046 11960.6 11896.1 -9.53297 -78044 
132 2.63e-05 2.7507 0.0929449 12011.7 11936.3 5.10349 -89371.6 
133 2.65e-05 2.21203 -0.743798 11868.9 11879.9 6.29745 -74392.1 
134 2.67e-05 -0.0882933 0.434105 11942.7 11906.3 13.451 -96333 
135 2.69e-05 2.60486 -0.263494 11904.8 11896.6 11.277 -80112.2 
136 2.71e-05 2.4711 0.145277 11924.7 11919.1 -9.97143 -85224.4 
137 2.73e-05 1.88121 -0.503362 11771.8 11898.9 -6.73941 -82684.4 
138 2.75e-05 1.40095 -0.500042 11838.8 11904.8 8.07258 -82226.5 
139 2.77e-05 1.97011 -0.413213 11949 11929.2 0.144244 -82286.2 
140 2.79e-05 1.27354 -0.298954 11944.4 11879.1 -3.5557 -82871.1 
141 2.81e-05 1.0221 -0.239898 11865.7 11936.6 -9.99155 -85440.1 
142 2.83e-05 1.23083 -0.477227 11930.2 11916.7 12.1296 -84360.2 
143 2.85e-05 0.783146 -0.00101526 11840.2 11912.8 4.24683 -88996 
144 2.87e-05 -0.773994 -0.355412 11914.7 11887.1 17.5949 -77884.5 
145 2.89e-05 -0.500551 0.00329153 11967 11911.8 -1.87902 -82408.5 
146 2.91e-05 -0.570645 -0.0169337 12017.3 11901.6 -5.19995 -83316 
147 2.93e-05 0.913034 -0.108622 11959.6 11936.5 -2.14204 -85027.6 
148 2.95e-05 -0.609545 -0.329623 11859.3 11900.5 11.3843 -84565 
149 2.97e-05 0.105928 -0.359768 11912 11898.5 1.09904 -80584.1 
150 2.99e-05 -0.0165101 0.011399 11870.7 11911.3 -15.0595 -84238.4 
151 3.01e-05 -1.08376 0.0128338 11921.7 11912.4 9.24235 -90404 
152 3.03e-05 -1.19978 -0.161972 11986.1 11916.9 11.0484 -87154.9 
153 3.05e-05 -0.542358 0.0314751 11917.8 11896.8 7.80283 -93390 
154 3.07e-05 0.687428 -0.420526 11960.5 11909.8 -13.654 -82268.1 
155 3.09e-05 -0.141727 -0.291746 11866.1 11894.4 25.0939 -85483.6 
156 3.11e-05 -0.449431 -0.215733 11912.9 11898.3 -0.941706 -85456.8 
157 3.13e-05 -0.291798 -0.566881 11997.4 11942.4 12.1181 -79119.8 
158 3.15e-05 -1.35207 -0.0202154 11896.5 11890.6 -0.601307 -79885.7 
159 3.17e-05 -0.15069 -0.170783 11909.5 11908 -3.88519 -90224.8 
160 3.19e-05 0.107994 -0.111239 11900 11890.2 7.24303 -87979.7 
161 3.21e-05 0.8972 -0.264995 11913.4 11905.4 14.6987 -85793.5 
162 3.23e-05 -1.67645 -0.108375 11948.8 11905.7 17.6125 -83857 
163 3.25e-05 -0.166107 -0.529645 11791.1 11868.8 -12.4308 -81847.9 
164 3.27e-05 -0.858216 -0.330815 11900.2 11909 8.61916 -86384.4 
165 3.29e-05 -0.407636 -0.264108 11955.4 11939 1.16338 -87002.8 
166 3.31e-05 0.0357476 -0.404173 11945.9 11888.2 -3.03733 -83284.7 
167 3.33e-05 0.15744 -0.165714 11840.4 11891.9 5.31877 -87031.1 
168 3.35e-05 -0.91404 0.289473 11864.4 11904.4 -2.62467 -89101.8 
169 3.37e-05 -0.278038 -0.275197 11962.2 11912.6 -10.3487 -87580.2 
170 3.39e-05 -0.991092 0.421907 11921.2 11909.8 -3.6457 -93356.3 
171 3.41e-05 -1.82301 -0.20162 11910.6 11891.4 1.31238 -84205.7 
172 3.43e-05 -1.04281 -0.367894 11889.9 11897.8 -7.05903 -84118.3 
173 3.45e-05 -0.632007 -0.111898 11849.9 11918.2 19.1664 -89885.6 
174 3.47e-05 -0.546194 0.252165 11830.7 11891.4 -8.03897 -86964.8 
175 3.49e-05 -0.597862 0.0636555 11868.8 11903.1 -6.1964 -88777.4 
176 3.51e-05 -0.563051 -0.258352 11965.7 11913 -4.35284 -84466.4 
177 3.53e-05 -0.542834 -0.0164115 11951.8 11928.4 8.37037 -87283.1 
178 3.55e-05 0.149477 -0.304637 11932.6 11904.5 0.104708 -84058.9 
179 3.57e-05 -0.455928 -0.387092 11958.9 11892.9 16.8916 -85598.2 
180 3.59e-05 -1.78302 0.275216 11928 11912 19.445 -85063.6 
181 3.61e-05 -1.27727 0.112659 11983.8 11905.4 -4.50701 -87908.3 
182 3.63e-05 0.109203 0.362363 11957.7 11904.3 -5.53228 -91725.6 
183 3.65e-05 0.554444 0.37342 11844.7 11900.9 -8.56745 -91534.8 
184 3.67e-05 -0.38675 -0.466205 11856.4 11904.5 8.50081 -82589.5 
185 3.69e-05 -0.0425896 -0.179092 11827.7 11900.4 0.0768988 -83881 
186 3.71e-05 0.437079 0.0183342 11795.7 11890.5 0.386599 -84893.7 
187 3.73e-05 1.99785 -0.261872 11824.6 11902.9 -1.63313 -86619.9 
188 3.75e-05 -0.0391791 0.220701 11937.9 11909.3 3.61051 -89678.1 
189 3.77e-05 -0.618419 -0.257738 11882.2 11912 0.382446 -81895.5 
190 3.79e-05 0.73945 -0.0884967 11925.7 11927.6 -8.13961 -87286.3 
191 3.81e-05 1.73054 0.191991 11842.2 11893.3 -6.22748 -84364.4 
192 3.83e-05 1.39121 0.287755 11916.6 11883.9 5.19136 -89569.6 
193 3.85e-05 0.184309 0.426056 11917.8 11891.4 18.5328 -85142 
194 3.87e-05 -0.39416 -0.277513 11918.6 11922.4 -16.3343 -80201 
195 3.89e-05 0.411624 0.194476 11913.3 11897.6 -15.0536 -86920.4 
196 3.91e-05 2.3239 -0.0586109 12021.8 11917.1 17.3179 -85689.6 
197 3.93e-05 0.325209 0.560412 11965.6 11880.8 6.41449 -88567.2 
198 3.95e-05 0.327032 0.255135 12005.8 11914.5 2.55342 -84597.2 
199 3.97e-05 1.02881 0.165059 12005.1 11895.9 11.4292 -90095.8 
200 3.99e-05 0.465858 -1.19459 12194 12000.4 -8.76037 -64619.8 
