ITEM: TIMESTEP
2000
ITEM: NUMBER OF CELLS
200
ITEM: BOX BOUNDS pp ss pp
0 0.0001
0 4e-05
0 0.0001
ITEM: CELLS id yc f_vel[1] f_vel[2] f_mom[1] f_mom[2] f_mom[3] f_q[*] 
1 1e-07 1.51818 2.20406 10040.2 10187.4 130.692 -88101.3 
2 3e-07 3.66486 -1.40444 10892.7 10277.2 132.668 -59529.3 
3 5e-07 1.10017 -0.660018 10451.5 10178.8 -7.84018 -62095.2 
4 7e-07 -4.75332 0.625132 10398.5 10239.4 -59.928 -67220.4 
5 9e-07 2.48869 0.0500751 10327.6 10230.5 -51.8539 -47599.3 
6 1.1e-06 0.803505 -0.824228 10127 10305.2 9.0309 -66165 
7 1.3e-06 0.816207 -4.74769 10039.2 10011.7 -42.0378 -5489.31 
8 1.5e-06 2.26058 -2.46124 10350.5 10142.3 77.1839 -36767.6 
9 1.7e-06 -0.202728 -2.77474 9975.39 10080.9 22.9776 -49719.6 
10 1.9e-06 -6.17343 -0.561496 10439.4 10205.6 101.288 -51374.1 
11 2.1e-06 -4.86718 -0.415928 10294.3 10206.6 79.2321 -52090.9 
12 2.3e-06 -6.80198 -0.597299 10156.6 10193.2 30.8389 -82004.4 
13 2.5e-06 -5.59013 -2.1867 9892.03 10220.2 35.622 -37405.2 
14 2.7e-06 -3.16918 -0.230829 9946.06 10195.8 -43.2003 -39915.9 
15 2.9e-06 -6.28872 0.125477 10131.8 10282.4 -97.5567 -40374.9 
16 3.1e-06 -7.22984 -1.54267 10238.6 10160 -45.4305 -3951.94 
17 3.3e-06 -5.58184 0.20171 10482.5 10246.4 43.3294 -53737.2 
18 3.5e-06 0.84399 0.272696 10577.6 10288.5 9.44622 -66336.6 
19 3.7e-06 1.1006 0.839915 10262.6 10028.2 -15.9997 -89085 
20 3.9e-06 -0.645506 1.09384 10740 10307.5 -55.7558 -47544.2 
21 4.1e-06 0.209902 0.689092 10508.3 10274.9 -6.08694 -65745.5 
22 4.3e-06 3.02367 -0.377272 10784.7 10284.4 29.7448 -39081.1 
23 4.5e-06 8.05386 0.924565 10186.9 10273.5 -34.0555 -9901.01 
24 4.7e-06 1.40683 1.04625 10227.2 10156.6 7.00526 -46495.5 
25 4.9e-06 4.27534 2.41255 10406.8 10204.8 -39.3832 -77312.4 
26 5.1e-06 0.785102 3.0972 10124.4 10253.7 57.6408 -10005.7 
27 5.3e-06 -1.44284 0.672524 10229.4 10228.4 -65.7893 -79719.9 
28 5.5e-06 0.961976 3.03324 10165.2 10205.3 -66.69 -73969.4 
29 5.7e-06 0.263159 1.57972 10245 10186.7 37.0058 -38619.6 
30 5.9e-06 3.19686 1.42861 10372 10221.7 -74.3356 -51428 
31 6.1e-06 -1.57903 5.11154 10671.9 10237.9 -1.39161 -80727.5 
32 6.3e-06 -6.16105 1.95729 9975.15 10122.8 47.841 -40350.2 
33 6.5e-06 -3.8842 2.41472 10083.1 10144.7 -6.88166 -92054.8 
34 6.7e-06 -9.46699 3.87339 10504.9 10192.2 31.1441 -79803 
35 6.9e-06 3.93774 1.39176 10421.8 10164.4 93.1862 -43706.6 
36 7.1e-06 -4.04121 1.12166 10163.1 10006.4 60.751 -36548.6 
37 7.3e-06 -1.07673 3.82671 10043.1 10062.3 63.3855 -102080 
38 7.5e-06 -2.60784 2.2972 9627.6 10084.4 -4.93051 -56137.7 
39 7.7e-06 -10.5553 5.47032 10107.7 9963.29 18.9431 -92020.2 
40 7.9e-06 -5.25061 7.19456 10093.7 10096.8 -1.4585 -98777.4 
41 8.1e-06 -7.33735 6.97868 10286 10137.2 -41.0809 -119388 
42 8.3e-06 -9.33005 3.38382 10321.8 10029.7 109.758 -100595 
43 8.5e-06 -6.80604 6.44277 9954.83 10080.3 49.4246 -106102 
44 8.7e-06 -8.80933 6.24318 9869.33 10100.7 -30.0291 -112322 
45 8.9e-06 -3.59396 3.2192 10089.7 10133.8 -30.4179 -65814.2 
46 9.1e-06 -5.94096 4.67904 10640.1 10290.2 29.2735 -100395 
47 9.3e-06 -0.043333 7.18328 9924.77 10187.1 84.7073 -161851 
48 9.5e-06 -4.54765 5.84248 10324.6 10153.2 -7.80553 -129152 
49 9.7e-06 -2.0517 4.34232 10239.5 10108.2 -10.8732 -101148 
50 9.9e-06 0.456591 2.3801 9925.46 9962.63 56.7742 -102890 
51 1.01e-05 5.06461 4.14699 10108.6 10179.7 30.4039 -81475 
52 1.03e-05 -3.77554 3.83314 10021.9 10122.7 -46.6417 -80866.3 
53 1.05e-05 1.34801 4.4995 10051.4 10264.5 -39.9611 -94477.5 
54 1.07e-05 0.538327 4.13554 10274.2 10177 -33.2622 -60195.2 
55 1.09e-05 -2.53584 5.83127 10622.4 10133.4 -30.4731 -79690.2 
56 1.11e-05 6.68317 4.59955 9933.3 10192.8 -196.311 -89253.5 
57 1.13e-05 1.50728 5.03902 9864.49 10138.1 -81.2397 -79675.6 
58 1.15e-05 2.74196 4.20676 10348.4 10346.2 -68.3615 -84491.4 
59 1.17e-05 0.638705 2.27941 10157.4 10153.9 16.0831 -34784.3 
60 1.19e-05 -5.39532 2.09107 10531.1 10263.3 -65.3944 -46124.9 
61 1.21e-05 6.31562 1.30413 9979.72 10279 -32.0412 -33602.7 
62 1.23e-05 6.79122 3.00637 9652.37 10264.3 -80.4484 -55565.1 
63 1.25e-05 2.75099 5.14141 9843.39 10136.3 -30.9064 -85667.8 
64 1.27e-05 7.51373 5.50017 9949.27 10357.7 -6.09694 -75319.2 
65 1.29e-05 6.49844 4.14143 9907.19 10199.5 -128.507 -40411 
66 1.31e-05 2.78161 4.25242 9810.36 10323.1 -38.1403 -71580 
67 1.33e-05 2.20169 2.35191 10291.4 10183.1 -15.1721 -32254.6 
68 1.35e-05 -6.70347 3.56984 9948.54 10286.6 -85.1955 -62924.6 
69 1.37e-05 -4.14987 3.25517 10132.4 10188.2 60.7143 -39009.1 
70 1.39e-05 3.11468 2.44839 10474.8 10172.6 -44.293 -16788 
71 1.41e-05 -6.11056 2.51474 10046.7 10188.5 87.0123 -48171.3 
72 1.43e-05 3.96483 3.72015 9988.14 10186.6 12.1346 -56684.3 
73 1.45e-05 -5.53019 3.14759 10200.1 10131.6 68.8377 -26307.7 
74 1.47e-05 -5.50304 3.48761 10093.7 10189.3 69.5275 -42330.9 
75 1.49e-05 -4.56043 3.16324 9961.93 10102.4 35.501 -56154.2 
76 1.51e-05 3.49787 4.6579 10457.4 10147.3 11.7081 -58056.5 
77 1.53e-05 -5.50166 4.8561 10057.9 10151.6 46.5914 -81374.6 
78 1.55e-05 -3.92091 5.90864 10237.2 10298.7 -16.4802 -105416 
79 1.57e-05 2.98621 6.91711 10201.3 10150.9 -61.9085 -114694 
80 1.59e-05 5.25736 3.52638 10368.2 10247.2 -16.8028 -87592.6 
81 1.61e-05 -3.01703 5.23962 10226.8 10298.7 -7.87717 -110479 
82 1.63e-05 -1.0722 2.96856 9832.76 10213.8 -0.348164 -87109.9 
83 1.65e-05 0.189773 0.684502 10442.1 10276.5 67.0458 -60329.2 
84 1.67e-05 1.56893 6.28473 9865.65 10107.3 81.6179 -102775 
85 1.69e-05 -0.397914 3.3761 10093 10218.8 20.6774 -105079 
86 1.71e-05 3.96732 5.35458 9877.98 10127.7 24.0876 -98802.5 
87 1.73e-05 1.7283 5.11711 10215.1 10196.1 33.1077 -56313.6 
88 1.75e-05 -0.326235 4.90557 10494 10170.5 32.574 -118076 
89 1.77e-05 -12.6763 2.09456 9593.5 10144.2 65.7586 -46689.4 
90 1.79e-05 -8.79126 5.46735 10002.1 10158.8 -12.2486 -81470 
91 1.81e-05 -8.51422 5.08432 10512.9 10235.9 -21.0672 -61300 
92 1.83e-05 -2.46098 6.11742 10243.5 10112.2 25.3369 -90043 
93 1.85e-05 -2.02383 4.55672 10568.3 10161.7 103.083 -51999.4 
94 1.87e-05 2.07354 3.27792 10441.4 10213.7 42.7834 -99022.5 
95 1.89e-05 -1.401 6.55512 10213.8 10154.3 125.336 -95764.9 
96 1.91e-05 2.23955 5.10811 9909.94 10083.7 36.9781 -98642.1 
97 1.93e-05 -2.40808 4.47341 10189.1 10223.9 120.585 -77988.8 
98 1.95e-05 5.48829 3.66816 10306.1 10195.4 48.4944 -86731.9 
99 1.97e-05 5.75983 1.69313 9890.16 10266 15.1267 -23629.2 
100 1.99e-05 3.38122 3.79309 10609.4 10177.9 82.1126 -66414 
101 2.01e-05 -3.49918 4.58962 10191 10193.2 39.2124 -90784.6 
102 2.03e-05 -4.85053 4.12575 10250.3 10282.6 70.4735 -69394.9 
103 2.05e-05 -3.21862 3.70136 10465.7 10228.1 -10.463 -65907.5 
104 2.07e-05 -8.80869 4.18291 10124.9 10116.9 -92.6885 -64654.7 
105 2.09e-05 -5.50151 0.67165 9784.01 10138.4 13.7505 -20594.3 
106 2.11e-05 -4.02432 3.70437 10100 10175.7 67.8874 -61955.7 
107 2.13e-05 -4.1929 2.21944 10375.8 10247.6 9.6496 -89398.7 
108 2.15e-05 -4.68739 1.70289 10072.6 10166.9 4.71079 -38527.8 
109 2.17e-05 -3.42821 1.27929 10012.7 10245 -42.9369 -40852.9 
110 2.19e-05 0.930918 0.113913 10228.6 10217.4 66.0086 -75541.2 
111 2.21e-05 -2.06524 2.98914 10295.2 10114.4 -14.8068 -62121.8 
112 2.23e-05 2.17057 -1.32317 10442.6 10179.5 -3.64633 -27499 
113 2.25e-05 -0.309535 2.34866 10505.7 10115.4 9.17982 -88523.3 
114 2.27e-05 -0.933196 1.40429 10100.8 10219.6 7.80463 -83242.5 
115 2.29e-05 6.04602 2.74309 10263.9 10141.3 -12.722 -56021.4 
116 2.31e-05 -2.96316 0.837494 10309.3 10157.4 62.3683 -25801.2 
117 2.33e-05 -8.00509 2.01918 10383.4 10104 46.5994 -54386.7 
118 2.35e-05 3.17585 -0.276641 9918.7 10237.2 55.3449 -61654.6 
119 2.37e-05 1.96175 3.08012 10357.4 10234.2 72.9748 -72291.4 
120 2.39e-05 -3.67869 2.06 10544.6 10295.5 7.98587 -63798.6 
121 2.41e-05 -2.69146 0.0725188 10450 10146.1 89.9014 -43206.9 
122 2.43e-05 -5.05551 1.01163 10157.9 10171.7 41.0424 -50846.7 
123 2.45e-05 -7.58449 2.42181 10132.5 10143.1 51.8784 -75701.7 
124 2.47e-05 -13.0115 3.34072 10682.5 10130 100.067 -77518.3 
125 2.49e-05 -5.10733 3.93135 10643.8 10148.3 6.15755 -96597.3 
126 2.51e-05 -4.62172 2.68641 10051.9 10170.8 176.968 -72931.7 
127 2.53e-05 6.26978 1.17676 10696.7 10287.6 14.8979 -70099.4 
128 2.55e-05 -4.80487 2.82048 10602.6 10229.2 27.7778 -92126.3 
129 2.57e-05 2.21739 1.56287 9851.19 10156.3 11.2081 -75107.3 
130 2.59e-05 3.02982 0.400373 9659.37 10112 78.3337 -93526.2 
131 2.61e-05 7.51704 2.70212 9952.16 10161.1 17.505 -98758 
132 2.63e-05 3.21105 1.29767 9929.97 10126 9.81212 -80648.6 
133 2.65e-05 -2.43759 0.595465 10318.1 10140 -45.5063 -61160.5 
134 2.67e-05 -12.2776 0.356442 10331.3 10158 30.1764 -82958.3 
135 2.69e-05 -5.0511 0.0330079 10239.9 10243.3 77.4707 -55540 
136 2.71e-05 0.840591 2.39453 9782.64 10177.9 66.3315 -107438 
137 2.73e-05 -8.34723 2.43148 10686.7 10145.7 125.606 -126542 
138 2.75e-05 -9.76341 1.55233 10343.6 10121.6 69.4788 -111032 
139 2.77e-05 -4.39558 2.33107 10584.6 10115.1 10.0364 -102346 
140 2.79e-05 -1.87215 1.16272 10728.9 10174.6 33.3553 -76971.9 
141 2.81e-05 -2.33421 -1.21849 10261.8 10125.4 45.1927 -85120.8 
142 2.83e-05 0.176493 -0.959207 10035.4 10198.2 63.3186 -64506.4 
143 2.85e-05 3.99992 -1.19934 10233.9 10046.2 111.59 -101484 
144 2.87e-05 5.25985 -0.678863 10440.3 10105.3 111.05 -74581.5 
145 2.89e-05 -0.611828 0.238096 10244.5 10100.3 79.1313 -89125 
146 2.91e-05 -5.11729 1.46863 9904.73 10212.1 93.1497 -113990 
147 2.93e-05 -0.181466 -0.34538 9858.65 10165.4 -4.56369 -61837.4 
148 2.95e-05 -1.86575 -0.547889 10024 10106.6 130.819 -92727.6 
149 2.97e-05 -6.21829 1.47551 10117.7 10115.3 65.6799 -78731.8 
150 2.99e-05 -8.55876 -1.13168 10106.8 10069.9 59.0434 -106562 
151 3.01e-05 -7.49327 -2.16002 10086.2 10093.7 118.758 -72056.8 
152 3.03e-05 -3.21944 -0.573676 10374.7 10169.3 27.339 -97321.2 
153 3.05e-05 -2.49076 0.884185 10500.4 10088.4 131.063 -126498 
154 3.07e-05 -2.67037 0.111707 10304.1 10052.5 42.5003 -95678.1 
155 3.09e-05 -10.4163 -2.20449 10020.1 10128.2 37.275 -89788.6 
156 3.11e-05 -7.50153 -0.969152 10340.4 10042.3 2.73737 -96028.6 
157 3.13e-05 -9.82426 0.274651 10138.9 10173.8 95.2947 -116011 
158 3.15e-05 -13.6944 -0.483828 10025.4 9981.65 25.5256 -51569.2 
159 3.17e-05 -4.4332 -0.614186 9981.31 10020.9 -91.9792 -76565.4 
160 3.19e-05 -10.3107 1.7356 10240.7 10064.5 40.4915 -77164.4 
161 3.21e-05 -1.8263 -0.0744202 10104.3 10073 53.8827 -72615.8 
162 3.23e-05 -2.95722 1.28525 10475.2 10111.4 70.689 -82228.6 
163 3.25e-05 -2.19246 0.403889 10347.7 10019.7 79.8005 -69646.3 
164 3.27e-05 -6.18252 1.31814 10108.9 10017.9 74.3171 -117360 
165 3.29e-05 5.35763 0.834609 10258.2 9985.69 62.4475 -107499 
166 3.31e-05 1.73513 2.48054 10346.1 9988.27 110.054 -110758 
167 3.33e-05 -4.97756 1.01154 10726.1 10127.9 62.695 -110174 
168 3.35e-05 -1.26917 2.67352 10603.5 10022.4 57.0796 -136672 
169 3.37e-05 -8.65317 0.331347 9892.41 9973.17 18.0179 -137489 
170 3.39e-05 -2.0425 2.45364 10539.2 10088.7 49.6676 -145034 
171 3.41e-05 -12.0802 0.346423 10292.3 10040.8 55.3836 -116489 
172 3.43e-05 -7.33232 3.39791 9889.59 9970.14 21.5681 -135756 
173 3.45e-05 -3.16679 -0.0900991 10624.7 10098.4 36.7242 -110335 
174 3.47e-05 -4.81815 -0.606213 10034.8 9939.09 2.41989 -80925.2 
175 3.49e-05 -6.43934 2.95812 10366.3 10145.5 -60.1905 -140647 
176 3.51e-05 -7.05621 2.5512 10075 10067.8 -25.6604 -148177 
177 3.53e-05 -10.069 0.92651 9909.41 10026.1 -16.6816 -132528 
178 3.55e-05 -10.0835 3.38166 9732.76 10040.7 37.4379 -196200 
179 3.57e-05 -7.94547 3.78154 10041.7 10139 15.1393 -146097 
180 3.59e-05 -4.90275 3.1648 9933.69 9958.6 -4.30114 -132061 
181 3.61e-05 -2.26437 3.24462 10022.5 9966.76 13.7657 -134821 
182 3.63e-05 -4.26388 1.46126 10218.9 10115.2 -90.232 -157197 
183 3.65e-05 -3.2364 5.02417 9684.31 9980.13 -55.4058 -173254 
184 3.67e-05 -0.561898 3.30375 9823.3 10062.1 -4.78096 -114249 
185 3.69e-05 -7.87204 2.91027 10243.9 10088.9 -67.5418 -122702 
186 3.71e-05 -8.39021 1.84759 10219.7 10018.8 -89.3876 -130483 
187 3.73e-05 -1.24651 0.910081 10383.3 10030.5 -97.2947 -129234 
188 3.75e-05 -4.72092 2.74594 9908.73 9971.95 -94.2865 -172837 
189 3.77e-05 -2.01571 1.17831 10115.2 10051.1 -60.7355 -127280 
190 3.79e-05 -9.95833 1.70617 9964.41 10080 -73.1421 -105428 
191 3.81e-05 -4.35211 1.95026 10052 10009.5 -118.27 -125767 
192 3.83e-05 -7.24023 1.50995 9773.91 10001.4 -52.9539 -92177.9 
193 3.85e-05 -3.48811 2.56997 10371.1 9982.56 -117.444 -82990.7 
194 3.87e-05 1.89106 0.197417 10227.7 9968.2 -141.933 -83973.1 
195 3.89e-05 -1.59189 0.73872 9998.34 9958.58 -100.946 -92801 
196 3.91e-05 -3.58859 -0.0460871 10237.7 10001.3 -97.0019 -94838.3 
197 3.93e-05 -4.18483 -0.781193 10214.2 10048.2 -148.725 -90983.6 
198 3.95e-05 0.636458 -0.511546 10186.8 10034.7 -21.9419 -83328.9 
199 3.97e-05 -5.54217 2.81615 10219.2 10018.3 -108.68 -84682.4 
200 3.99e-05 -4.90557 1.04806 10097.5 10008.3 -92.9039 -115190 
