ITEM: TIMESTEP
100000
ITEM: NUMBER OF CELLS
200
ITEM: BOX BOUNDS pp ss pp
0 0.0001
0 4e-05
0 0.0001
ITEM: CELLS id yc f_vel[1] f_vel[2] f_mom[1] f_mom[2] f_mom[3] f_q[*] 
1 1e-07 0.234979 1.96037 10696 10676 -7.2409 -122713 
2 3e-07 -0.959761 -0.0613588 10586.5 10641.1 17.0638 -92992.5 
3 5e-07 -1.05625 0.224685 10681.3 10614.5 -0.702748 -94681.4 
4 7e-07 -1.4978 -0.426941 10538.4 10585 -34.9336 -86831.5 
5 9e-07 -1.56454 -0.394918 10586.5 10571 9.55232 -86664.8 
6 1.1e-06 -3.05802 -0.0604568 10657.5 10609.5 25.6174 -85454.3 
7 1.3e-06 -2.11094 0.354277 10598.8 10645 5.10509 -99595.7 
8 1.5e-06 -2.40242 -0.457759 10497.3 10582.7 26.6983 -78514.7 
9 1.7e-06 -3.21021 0.21211 10553.4 10581.9 8.76296 -89197 
10 1.9e-06 -3.00879 -0.760589 10636.2 10564.8 -25.9369 -78328.6 
11 2.1e-06 -1.05696 0.0756762 10535.8 10582.2 -13.4805 -87404.6 
12 2.3e-06 -3.64394 0.423325 10504.5 10581.4 23.609 -88130.3 
13 2.5e-06 -2.78836 0.35298 10551.1 10586 3.7069 -97731.3 
14 2.7e-06 -2.38015 -0.075154 10615.8 10589.9 -7.38601 -83020.3 
15 2.9e-06 -2.62312 -0.148251 10564.5 10590.4 17.3763 -84391.4 
16 3.1e-06 -2.39559 -0.251935 10554.5 10605.9 -13.3405 -81230.5 
17 3.3e-06 -2.7628 -0.290019 10539.4 10586.5 10.5995 -90891.8 
18 3.5e-06 -0.979301 0.00343426 10470.2 10549.2 7.61087 -85580.2 
19 3.7e-06 -2.64344 0.539696 10621.2 10598.5 -8.08912 -99603.5 
20 3.9e-06 -3.22399 -0.240283 10603.9 10592.7 5.23635 -87569.2 
21 4.1e-06 -3.6676 0.241202 10567.5 10590.3 -17.7878 -90811.3 
22 4.3e-06 -3.21139 -0.469102 10513 10594.7 16.3742 -87452 
23 4.5e-06 -2.7937 -0.271322 10548 10575.7 -5.70577 -78849.6 
24 4.7e-06 -4.12891 -0.00616003 10608.2 10595.9 25.6408 -87721.7 
25 4.9e-06 -4.05234 -0.329062 10623.1 10597.3 -9.21068 -83286.1 
26 5.1e-06 -3.3244 -0.0160186 10509.6 10577.2 4.66677 -87615.2 
27 5.3e-06 -3.32093 0.405469 10551.4 10584.6 14.0315 -87663.1 
28 5.5e-06 -3.77296 -0.165372 10589.3 10582.2 -10.9724 -87182.8 
29 5.7e-06 -1.66282 -0.234624 10510.7 10565.8 2.41492 -90606.5 
30 5.9e-06 -1.93476 -0.324344 10585 10576 5.79893 -77130.6 
31 6.1e-06 -2.66442 -0.36221 10544.3 10582.7 -7.28582 -83657.8 
32 6.3e-06 -2.36531 -0.232011 10600.5 10605.4 4.62956 -80118.7 
33 6.5e-06 -3.43677 0.15429 10601.4 10555.9 10.5702 -89074.9 
34 6.7e-06 -1.73771 -0.292355 10643.4 10585.2 18.038 -83669.6 
35 6.9e-06 -2.07751 0.513339 10621.3 10640.8 1.88639 -96675.9 
36 7.1e-06 -2.63152 0.155369 10575.6 10550.9 6.9455 -87980.7 
37 7.3e-06 -2.10522 -0.0510211 10586.3 10560.1 -6.83439 -90828.3 
38 7.5e-06 -2.04228 -0.0548474 10555.3 10586.9 -5.45719 -75522.6 
39 7.7e-06 -2.10329 -0.0890495 10590.1 10603.1 3.68618 -85594.6 
40 7.9e-06 -2.8205 0.143782 10510.9 10575.3 3.68268 -86842.8 
41 8.1e-06 -1.22656 -0.24046 10514.7 10576.7 -13.4345 -82827.9 
42 8.3e-06 -1.15072 -0.576548 10499.6 10561.3 2.96464 -80751.4 
43 8.5e-06 -0.513598 -0.205766 10577.8 10588.6 6.33659 -87225.8 
44 8.7e-06 -1.26737 -0.207321 10597.1 10578.9 16.336 -90431.4 
45 8.9e-06 -1.29054 -0.270705 10513.4 10561.3 1.8845 -88249.5 
46 9.1e-06 -1.81662 -0.576755 10556.9 10559.1 -8.97702 -80507.3 
47 9.3e-06 -0.463147 -0.153568 10566.2 10579 -5.47831 -81797.5 
48 9.5e-06 -1.23506 0.383734 10619.7 10600.9 12.0732 -93346.5 
49 9.7e-06 0.466298 0.117935 10564.4 10544.4 -10.4809 -88434.4 
50 9.9e-06 -0.349369 0.149107 10662.7 10609.4 1.29549 -85436.9 
51 1.01e-05 -1.12275 -0.677982 10491.2 10548.7 16.0393 -76409.9 
52 1.03e-05 -1.84324 -0.277447 10423.2 10531 -31.9253 -89187 
53 1.05e-05 -0.730704 -0.0919589 10556.7 10604.4 29.3647 -88494.8 
54 1.07e-05 -0.687634 -0.721519 10498.3 10563.7 3.99703 -80378.2 
55 1.09e-05 -1.02028 0.104337 10607.8 10575.1 35.6329 -91766.1 
56 1.11e-05 -0.659258 -0.0115243 10605.8 10596 -20.9972 -86993.6 
57 1.13e-05 0.672948 -0.175052 10547.7 10570.9 -1.8406 -84857.7 
58 1.15e-05 -0.492605 -0.0422232 10559.1 10526.2 -3.27527 -89685.2 
59 1.17e-05 1.05345 0.289065 10535 10575.8 9.91255 -93828.7 
60 1.19e-05 -1.48755 0.430319 10624.9 10587.6 10.4978 -92528.4 
61 1.21e-05 -0.484682 -0.635296 10616.4 10547 -4.96928 -89650.1 
62 1.23e-05 -0.00570699 0.082868 10597.1 10537 -10.2655 -89599.4 
63 1.25e-05 0.335138 0.523514 10508.2 10574.9 27.9049 -90843.5 
64 1.27e-05 -1.49186 -0.191773 10640.4 10587.4 8.24706 -86733.1 
65 1.29e-05 -0.494915 0.0204114 10596 10619.5 21.7563 -88645.6 
66 1.31e-05 -0.990541 0.00934406 10605.5 10573.4 -24.2308 -83182.5 
67 1.33e-05 -0.265463 -0.00253477 10595.5 10567.5 -4.82901 -93217.8 
68 1.35e-05 -1.22201 -0.731168 10608.1 10596.8 13.8397 -77308.7 
69 1.37e-05 -1.03443 0.0935049 10649.2 10566.9 13.1625 -88025 
70 1.39e-05 -0.912548 -0.211164 10611.1 10559.8 16.3334 -92157.4 
71 1.41e-05 -1.91119 -0.178654 10528.3 10552.7 22.9785 -87961.7 
72 1.43e-05 -1.13697 0.0492048 10614.8 10557.8 15.2442 -84301.9 
73 1.45e-05 -1.00801 -0.282949 10577 10580.3 8.35473 -88025.9 
74 1.47e-05 -3.06696 -0.0600571 10549.2 10593.3 20.5223 -90231.7 
75 1.49e-05 -1.65227 0.291343 10617.8 10552.4 22.8845 -92469.7 
76 1.51e-05 -1.74893 -0.139793 10706.9 10596.9 4.6227 -89398 
77 1.53e-05 -1.9729 -0.140244 10584.5 10551.1 -8.5834 -89763.9 
78 1.55e-05 -0.880057 0.218738 10630.1 10570.9 3.72652 -87352.9 
79 1.57e-05 -1.15964 -0.240704 10581.7 10550.7 -4.19299 -91446.4 
80 1.59e-05 -0.957942 -0.70563 10489.7 10579.8 2.84686 -82642.8 
81 1.61e-05 -1.65711 -0.43181 10540.5 10543.3 5.37869 -86519.1 
82 1.63e-05 -0.962753 -0.403623 10535.2 10577.7 -2.30315 -86471.6 
83 1.65e-05 -0.820559 0.31942 10555 10575.1 -10.9613 -95324.7 
84 1.67e-05 0.733236 -0.0787843 10606.4 10551.9 7.4474 -87611.5 
85 1.69e-05 -0.549962 0.221658 10546.8 10528.9 8.80251 -85116 
86 1.71e-05 0.154887 0.080199 10477.1 10544.2 5.91526 -90046.9 
87 1.73e-05 0.161068 0.62522 10613.7 10602.9 -14.0793 -91265.5 
88 1.75e-05 1.24668 0.467385 10567.5 10558.5 -16.6452 -95853.3 
89 1.77e-05 1.61917 -0.0128757 10541.8 10583.8 16.7969 -89644.3 
90 1.79e-05 -0.20955 0.6902 10553.6 10519.1 -2.41482 -99228.6 
91 1.81e-05 1.37293 -0.171613 10502.3 10585.1 26.2943 -86791.7 
92 1.83e-05 0.175889 -0.137063 10531.5 10537 -29.2345 -87144.7 
93 1.85e-05 1.20255 0.199767 10574.8 10574.6 8.36933 -90242.7 
94 1.87e-05 0.914402 -0.403977 10626.9 10550.8 6.10005 -84312.5 
95 1.89e-05 0.160141 0.0690634 10581 10544.6 15.6659 -84931 
96 1.91e-05 0.575087 0.0280602 10542.8 10546 5.60664 -92756.2 
97 1.93e-05 1.50782 0.209711 10587.2 10544.6 -22.6946 -84700.3 
98 1.95e-05 0.728561 -0.491029 10687.1 10579.8 -14.0079 -82500.5 
99 1.97e-05 1.53762 -0.0837685 10647.8 10549 7.18391 -91037.9 
100 1.99e-05 2.4507 -0.247373 10567 10557.3 -5.95937 -87692.8 
101 2.01e-05 2.65987 -0.157149 10644.5 10581.6 18.6208 -92273.4 
102 2.03e-05 1.48307 -0.581438 10690.3 10617.1 -1.52592 -84052.6 
103 2.05e-05 1.19591 -0.061744 10649.8 10545.7 33.8812 -83336.7 
104 2.07e-05 -0.16901 0.199326 10570.7 10547.8 -0.886559 -92511.2 
105 2.09e-05 1.20889 0.0269818 10586.1 10560.9 4.43696 -91951.8 
106 2.11e-05 1.25983 -0.416983 10519.8 10550.5 -12.3984 -77266 
107 2.13e-05 1.30004 0.012545 10608.1 10555.4 13.0833 -87241.7 
108 2.15e-05 2.36964 -0.431127 10591 10571.2 1.1931 -84999.2 
109 2.17e-05 2.06883 -0.055246 10616.2 10552.9 9.18501 -91519.5 
110 2.19e-05 2.19835 -0.170346 10482.6 10522.9 -10.476 -91344.2 
111 2.21e-05 2.00622 -0.0239112 10552.5 10551.5 5.18521 -85341.5 
112 2.23e-05 3.96068 0.0325611 10479.6 10563.8 -19.1019 -94462.6 
113 2.25e-05 3.21558 -0.353506 10548.8 10535.8 -3.1122 -80111.6 
114 2.27e-05 3.8964 0.193623 10581.6 10535.6 1.59813 -84866.1 
115 2.29e-05 3.14194 0.133522 10507.8 10542.8 -7.38047 -85631 
116 2.31e-05 4.38166 0.0685849 10595 10538.2 23.5914 -93929.6 
117 2.33e-05 4.27096 0.549421 10536.3 10534.8 8.52883 -93081.6 
118 2.35e-05 3.40629 -0.270542 10552.2 10557.9 11.3607 -92008.1 
119 2.37e-05 4.50807 0.0676647 10582.8 10554.5 12.0083 -87784 
120 2.39e-05 4.01195 0.271858 10528.1 10538.8 11.0987 -84108.5 
121 2.41e-05 4.46728 -0.317966 10503.6 10564.6 -2.73245 -94413 
122 2.43e-05 3.60446 0.397645 10472.6 10514.1 24.5782 -93983.2 
123 2.45e-05 2.90637 -0.38877 10502.2 10568.6 -0.251472 -86796 
124 2.47e-05 3.91236 0.083393 10483.3 10554.9 -0.62225 -95340.2 
125 2.49e-05 4.0424 0.176065 10446.8 10532.3 7.5745 -94034.1 
126 2.51e-05 4.38147 0.069037 10494.6 10575.6 -1.51834 -95618.8 
127 2.53e-05 3.63454 -0.302157 10474.4 10557.8 12.0367 -86933.6 
128 2.55e-05 3.5043 -0.0344173 10538.4 10538 -16.7002 -88961.7 
129 2.57e-05 2.59937 -0.3794 10468.9 10533.1 -5.75942 -87309.3 
130 2.59e-05 1.75041 -0.554214 10547.4 10546.9 7.16621 -86702.4 
131 2.61e-05 1.04058 0.172101 10515.6 10530.6 -6.9192 -86371 
132 2.63e-05 1.91568 0.183986 10640.4 10565 -0.464245 -90174.1 
133 2.65e-05 1.94863 -0.774895 10547.2 10540.3 -16.3708 -88583.4 
134 2.67e-05 3.07621 -0.300381 10548 10549.6 -3.16949 -78196.3 
135 2.69e-05 4.02582 0.512627 10567.5 10530.5 -9.91563 -85439.4 
136 2.71e-05 3.9455 -0.346064 10542.2 10551.9 -10.9807 -90243.6 
137 2.73e-05 3.49355 0.505956 10469.1 10521.9 2.55551 -92228.2 
138 2.75e-05 4.44034 0.255043 10563.5 10540.9 17.2937 -89614.4 
139 2.77e-05 3.46988 -0.353289 10502.2 10541.3 3.72859 -84652.3 
140 2.79e-05 3.42551 -0.0968779 10573.8 10534.5 29.28 -91875.3 
141 2.81e-05 2.1488 0.381727 10513.8 10510.9 7.70299 -93246.1 
142 2.83e-05 1.74697 -0.243413 10590.9 10537.5 -20.2149 -83506.3 
143 2.85e-05 3.14746 0.200224 10563.8 10542.2 5.0958 -88198.1 
144 2.87e-05 3.83431 -0.0665986 10516.7 10536.8 -11.6573 -85094.2 
145 2.89e-05 3.19405 0.252435 10521.2 10550.4 -0.267072 -94761.8 
146 2.91e-05 3.25711 0.127199 10427.8 10546.9 -9.07623 -86657.5 
147 2.93e-05 3.68244 -0.0643288 10515 10536.6 1.35901 -83873.4 
148 2.95e-05 4.01831 -0.0755837 10500.1 10510.2 -5.33986 -94968.9 
149 2.97e-05 3.24097 -0.43821 10584.7 10568.7 1.16663 -87305.9 
150 2.99e-05 3.90257 -0.651819 10473.7 10516.4 -5.79784 -84994.7 
151 3.01e-05 3.11458 -0.039627 10495.8 10539.9 -10.4723 -91849.4 
152 3.03e-05 4.61381 -0.389139 10543.3 10543.9 14.7888 -80537.1 
153 3.05e-05 3.31368 0.0854961 10528.7 10534.5 24.7504 -77725.7 
154 3.07e-05 2.95383 -0.604922 10493.3 10539.2 -2.09254 -83066.6 
155 3.09e-05 3.58836 0.0995558 10525.4 10532.2 3.48062 -89162.8 
156 3.11e-05 3.38384 0.187473 10555.5 10520.4 -12.7837 -92477.3 
157 3.13e-05 4.70437 -0.70462 10576.8 10545.8 -23.9413 -76433.1 
158 3.15e-05 3.45731 -0.169909 10607.6 10536 9.08587 -88800.3 
159 3.17e-05 4.06126 -0.357567 10575.5 10559.9 11.4044 -85838.6 
160 3.19e-05 3.89265 0.440094 10534 10528.1 -10.9083 -91394.2 
161 3.21e-05 3.64965 0.357852 10571.5 10564.1 -4.80497 -90439.9 
162 3.23e-05 3.28301 0.0195181 10499.3 10536.3 -4.90652 -87895.3 
163 3.25e-05 1.91387 -0.427977 10602.8 10523.3 4.17576 -83991 
164 3.27e-05 3.52074 -0.532554 10512.6 10547.5 12.197 -89437.7 
165 3.29e-05 3.64581 0.00692902 10512.9 10565.9 -12.3305 -85207 
166 3.31e-05 2.73278 -0.0564308 10572.4 10557.1 -10.7795 -96313.4 
167 3.33e-05 3.20793 -0.109004 10589.5 10558.2 8.11967 -85688.7 
168 3.35e-05 2.05951 0.322933 10506.8 10542.9 10.2265 -97667 
169 3.37e-05 1.82625 -0.322339 10507.3 10533.1 -23.4591 -83059.8 
170 3.39e-05 1.22733 -0.0252563 10528.6 10539.7 23.5585 -88713 
171 3.41e-05 2.37267 -0.397529 10582.1 10547.9 -9.64625 -85389.8 
172 3.43e-05 2.13403 -0.906302 10626.2 10550.8 -24.4024 -85379.4 
173 3.45e-05 2.87586 0.0974004 10511.4 10546 -10.3515 -91002.5 
174 3.47e-05 2.89987 0.0794149 10483.4 10518.3 5.53004 -89962.2 
175 3.49e-05 2.29912 -0.0413139 10460.5 10523.4 11.2464 -93943.8 
176 3.51e-05 3.3114 -0.197112 10523.5 10555.6 5.07735 -86746.6 
177 3.53e-05 1.95038 -0.209302 10666.8 10573.2 10.5661 -91562.5 
178 3.55e-05 1.45815 -0.0740865 10539.7 10560 -2.61319 -86515.6 
179 3.57e-05 2.39456 -0.361977 10521.5 10533.1 3.3163 -82836.2 
180 3.59e-05 1.86405 -0.164189 10565.7 10541.1 -6.60548 -80679.3 
181 3.61e-05 1.94418 -0.303915 10610.4 10520.9 -16.6495 -85906.6 
182 3.63e-05 0.35814 0.166445 10522.2 10531.4 19.5699 -88710.5 
183 3.65e-05 0.285372 0.302166 10589.7 10547 -20.5324 -89398.8 
184 3.67e-05 1.50705 0.0328623 10586.8 10553.8 -11.1406 -90248.6 
185 3.69e-05 0.764221 0.441136 10536.4 10522.2 8.55975 -91074.2 
186 3.71e-05 -0.167656 0.31025 10554.3 10549.2 -1.09862 -90698 
187 3.73e-05 -0.863819 -0.501283 10657.3 10543.4 1.38458 -86010 
188 3.75e-05 -0.63716 0.01328 10518.2 10569.5 7.26722 -90615.6 
189 3.77e-05 0.574083 0.463275 10626.1 10536.5 -15.5626 -91694 
190 3.79e-05 0.263326 -0.0738189 10691.7 10538.4 0.581844 -82968.3 
191 3.81e-05 1.32763 -0.456717 10552.5 10528.1 -10.7141 -82627.9 
192 3.83e-05 0.397212 -0.226698 10667.7 10560.6 -19.8593 -81908 
193 3.85e-05 1.21371 0.252527 10556.7 10540.3 -0.444511 -78488.1 
194 3.87e-05 2.3202 0.0799521 10587.9 10527.1 -4.79242 -82705.7 
195 3.89e-05 0.0521748 -0.30767 10585.5 10558.8 -10.9603 -72342.6 
196 3.91e-05 0.821712 -0.0111219 10506.6 10512.7 3.5957 -81759.4 
197 3.93e-05 2.13513 -0.266305 10637.4 10523.5 6.60907 -77391.6 
198 3.95e-05 0.992735 0.619077 10560.6 10513.5 -3.60983 -74139.9 
199 3.97e-05 -0.256546 0.0697707 10601.2 10521.2 0.360888 -68756.1 
200 3.99e-05 0.665035 -1.24705 10705.8 10589.5 -12.0945 -39162.5 
