ITEM: TIMESTEP
100000
ITEM: NUMBER OF CELLS
200
ITEM: BOX BOUNDS pp ss pp
0 0.0001
0 4e-05
0 0.0001
ITEM: CELLS id yc f_vel[1] f_vel[2] f_mom[1] f_mom[2] f_mom[3] f_q[*] 
1 1e-07 -0.114021 0.146742 10353.5 10361.8 -12.3722 -44773.7 
2 3e-07 0.217636 0.146036 10308 10311.8 0.423713 -77419.1 
3 5e-07 1.44311 0.102969 10264 10298.2 -3.06974 -85241 
4 7e-07 1.78931 -0.206561 10297.4 10305.8 -5.94411 -81263.9 
5 9e-07 0.599986 0.15601 10261.5 10309.9 10.5017 -87668.6 
6 1.1e-06 1.16339 0.222369 10234.4 10292.5 -3.09266 -85158.6 
7 1.3e-06 1.39548 -0.00478238 10263.1 10303.1 -8.42373 -89213.1 
8 1.5e-06 1.20822 0.120237 10318.3 10306.3 -1.7665 -84294.5 
9 1.7e-06 1.55339 0.0310981 10314.2 10297.4 -3.48469 -85347.1 
10 1.9e-06 1.05007 0.306492 10249.5 10312 5.66915 -89656.4 
11 2.1e-06 0.668497 0.0180832 10299.9 10304.7 9.92685 -81574.8 
12 2.3e-06 1.09352 -0.0290702 10286.5 10321.5 12.8084 -83729.1 
13 2.5e-06 1.9804 -0.00531513 10326.8 10299.6 10.7174 -84026.6 
14 2.7e-06 2.20951 -0.0354285 10278.4 10289.4 3.63567 -87108.9 
15 2.9e-06 2.01886 0.0223296 10354.5 10304.5 -1.16481 -85107.7 
16 3.1e-06 1.69954 -0.0421038 10306.6 10298.4 6.28714 -84890.5 
17 3.3e-06 2.10676 0.421819 10297.4 10282.2 2.04477 -82218.1 
18 3.5e-06 1.72272 0.0256644 10268.4 10298.9 8.53187 -87060 
19 3.7e-06 1.85743 0.120369 10266.5 10301.3 -1.92977 -88984.5 
20 3.9e-06 2.22661 0.205046 10284.8 10293.3 13.0079 -78616.1 
21 4.1e-06 1.44188 0.16677 10291.5 10282.9 -9.38474 -85479.9 
22 4.3e-06 2.09199 0.145955 10301.6 10300.7 11.5564 -84372.8 
23 4.5e-06 1.94575 0.169793 10310.5 10292 -10.8611 -89670.2 
24 4.7e-06 2.53551 0.21776 10349.7 10303.3 4.75581 -90958.9 
25 4.9e-06 2.17946 0.153664 10279.6 10313.2 2.57872 -78320.8 
26 5.1e-06 2.07919 0.187384 10354.3 10316.5 3.52834 -88768.1 
27 5.3e-06 2.60256 0.153467 10291.2 10299.4 6.37646 -85528.8 
28 5.5e-06 2.1088 0.067459 10296.9 10306.2 1.89712 -84927.2 
29 5.7e-06 1.52669 -0.0891937 10294 10297.8 -21.9378 -84555.5 
30 5.9e-06 2.01863 -0.158902 10285.6 10285.7 4.5385 -83628.2 
31 6.1e-06 1.45463 0.312388 10249.6 10290.9 -5.75 -83937.3 
32 6.3e-06 1.79775 0.325821 10303.2 10293.5 19.7034 -89308.6 
33 6.5e-06 1.6367 0.21113 10206.7 10301.5 9.15982 -86120.6 
34 6.7e-06 0.929795 0.127653 10226.1 10308.6 7.49321 -85046.6 
35 6.9e-06 0.763823 0.0797507 10255 10295.6 18.3126 -79369.1 
36 7.1e-06 1.63483 0.0323941 10283.3 10289.2 10.7295 -87745.5 
37 7.3e-06 2.52478 0.148645 10297 10292.4 -1.06268 -89987.7 
38 7.5e-06 2.40369 0.155674 10371.8 10315.3 4.73051 -91156.4 
39 7.7e-06 2.25938 0.355199 10297.4 10291.1 9.17854 -85616 
40 7.9e-06 0.889081 0.235199 10257.8 10291.9 0.952731 -81624.7 
41 8.1e-06 1.16861 0.016778 10312 10294.5 11.7095 -88336.9 
42 8.3e-06 1.6894 0.252581 10242.7 10292 5.90172 -91452.6 
43 8.5e-06 1.06247 0.134932 10308.4 10299.3 -13.0933 -90501 
44 8.7e-06 1.69515 0.412192 10299.2 10283.4 -3.28441 -88935.5 
45 8.9e-06 0.577279 0.392471 10332.6 10302.5 1.73969 -86702.7 
46 9.1e-06 0.692343 0.032142 10349.3 10302.6 6.51495 -89788.3 
47 9.3e-06 0.94554 0.0875775 10312.6 10295.8 20.0029 -88267.8 
48 9.5e-06 0.604907 0.100229 10249.2 10283.6 -16.054 -93850.8 
49 9.7e-06 0.657316 0.129788 10301 10301.7 -1.06423 -91026.1 
50 9.9e-06 1.35258 -0.0702381 10302.1 10306.3 13.099 -82433.9 
51 1.01e-05 1.36257 0.0177216 10312.8 10285.4 10.1146 -87044.4 
52 1.03e-05 1.47625 0.405108 10341 10298.6 3.19117 -82085.9 
53 1.05e-05 2.21997 -0.121704 10316.5 10301.7 6.16662 -84992.4 
54 1.07e-05 0.65476 -0.036688 10301.3 10301.8 -4.89051 -80868.6 
55 1.09e-05 1.36365 0.415594 10332.3 10299.5 -6.79253 -94770.7 
56 1.11e-05 1.31884 0.150196 10301.2 10295.6 5.32689 -89327.5 
57 1.13e-05 0.987359 0.0997842 10308.1 10295.6 -4.47853 -87740.6 
58 1.15e-05 1.81967 0.212897 10266.5 10318.8 -2.99336 -86001.2 
59 1.17e-05 1.43908 0.293786 10272.6 10296.6 10.786 -85092 
60 1.19e-05 1.34763 0.17269 10266.5 10300.5 1.40175 -85589.5 
61 1.21e-05 1.18477 0.185137 10286.2 10304.4 2.72615 -86673.3 
62 1.23e-05 1.23841 0.214758 10321.1 10316.7 12.3945 -86371.3 
63 1.25e-05 1.85839 0.171098 10244.2 10307.6 11.35 -84884.8 
64 1.27e-05 2.29567 0.219552 10229.7 10312.7 4.93498 -80658.5 
65 1.29e-05 1.99732 0.0910808 10250.7 10280.9 16.7371 -90363.8 
66 1.31e-05 1.04481 -0.114687 10284.6 10290.9 14.4766 -85660.1 
67 1.33e-05 1.59142 0.026845 10263.1 10293.1 11.8658 -85000.1 
68 1.35e-05 1.3513 0.142181 10280.8 10299.8 -7.57611 -84160 
69 1.37e-05 1.47578 -0.152917 10271.8 10307.9 9.89135 -80989.2 
70 1.39e-05 1.70017 0.0360357 10284.5 10300.8 -4.01847 -88203.4 
71 1.41e-05 1.7053 0.040567 10218.9 10310 11.7356 -87745.2 
72 1.43e-05 1.21159 0.0185111 10237.9 10301.5 12.7088 -86436.3 
73 1.45e-05 0.908224 -0.124769 10263.4 10284.5 4.14298 -80922 
74 1.47e-05 1.82254 0.298236 10278.9 10298.3 1.04028 -86246.5 
75 1.49e-05 2.06827 0.145166 10245.1 10303 2.69302 -85326.5 
76 1.51e-05 4.0104 0.249336 10287.7 10303.2 4.92731 -81518 
77 1.53e-05 2.60588 0.163678 10309.5 10303.5 13.2641 -88855.3 
78 1.55e-05 2.58804 0.361902 10237.1 10298.4 8.30038 -80492.3 
79 1.57e-05 2.89946 0.237566 10302.7 10309 -1.56526 -93612.2 
80 1.59e-05 2.48315 0.229052 10294.1 10279.7 5.65108 -94670.3 
81 1.61e-05 3.02692 0.119389 10324.7 10295.7 -5.68044 -84956.8 
82 1.63e-05 3.10125 0.0913441 10330.9 10302.7 4.53639 -85829.4 
83 1.65e-05 3.11472 0.319783 10293.3 10290.5 -0.0122904 -82695.1 
84 1.67e-05 1.86347 0.0179643 10300.7 10296.3 5.65008 -91397.4 
85 1.69e-05 2.51317 0.605128 10304.3 10315.3 -7.62844 -89574.1 
86 1.71e-05 1.98523 0.260417 10250.8 10285.3 -7.02035 -84066.8 
87 1.73e-05 3.13251 0.174892 10268.6 10306.1 8.14587 -90591.8 
88 1.75e-05 2.29636 0.169374 10239 10311.5 2.81536 -88557.1 
89 1.77e-05 1.91982 0.342583 10225.5 10290.9 -1.13731 -93438 
90 1.79e-05 2.00139 0.135799 10284.7 10301.2 -5.63429 -87476.4 
91 1.81e-05 1.83197 0.222894 10266.4 10303.1 9.58699 -90556.3 
92 1.83e-05 1.72209 0.318921 10271.3 10293.3 -0.949973 -87379 
93 1.85e-05 1.9772 0.245221 10228.6 10284.1 1.29707 -84193.5 
94 1.87e-05 1.69816 0.0146378 10308.6 10299.5 3.31415 -83955.8 
95 1.89e-05 2.27076 0.416325 10272.9 10305.9 -15.2354 -98023.4 
96 1.91e-05 2.2429 0.121345 10282.8 10298.2 5.60307 -90457.8 
97 1.93e-05 1.15099 0.345143 10282.1 10300.2 5.93532 -82925.7 
98 1.95e-05 0.76894 0.170203 10311.1 10322.3 -1.26425 -94420.4 
99 1.97e-05 0.487891 0.0393379 10296.9 10278.5 9.38692 -83784.4 
100 1.99e-05 0.551008 0.139871 10328.6 10299.9 2.96457 -84280.2 
101 2.01e-05 1.16976 -0.0089196 10292.2 10311.4 13.319 -82145.7 
102 2.03e-05 1.21267 0.00677233 10271.7 10286.3 0.0536987 -80716.5 
103 2.05e-05 0.654138 0.14232 10297.9 10287.1 3.47129 -83838.1 
104 2.07e-05 2.39558 0.120504 10291.6 10292.3 -2.51185 -83651.7 
105 2.09e-05 2.07734 0.242851 10276.1 10297 -2.54922 -86857.9 
106 2.11e-05 1.7825 0.168078 10306.1 10310.2 10.517 -90530.2 
107 2.13e-05 1.25629 0.0784801 10322.3 10304.2 -2.91424 -88003 
108 2.15e-05 2.65898 0.257169 10292.9 10304.1 -11.1808 -82599.9 
109 2.17e-05 1.59076 0.232412 10296.3 10298.5 2.49041 -84187.9 
110 2.19e-05 2.24819 0.204692 10269.3 10308 -0.683162 -88188.7 
111 2.21e-05 2.70812 0.186135 10287.8 10306.9 -2.37691 -85655.9 
112 2.23e-05 1.83342 -0.126408 10286.5 10284.2 -6.20258 -90083.4 
113 2.25e-05 2.15457 0.407296 10312.9 10285 20.8039 -88009.5 
114 2.27e-05 0.440981 0.285928 10278.5 10295.1 -9.3687 -81809.4 
115 2.29e-05 1.68157 -0.00171496 10308.7 10297.1 1.06922 -82139.8 
116 2.31e-05 1.84652 0.242687 10300.7 10299.1 7.71649 -87363.4 
117 2.33e-05 2.3249 0.0895147 10257.4 10300.1 0.0736929 -84610.9 
118 2.35e-05 1.85597 0.418588 10293.4 10298.8 3.84045 -94702.8 
119 2.37e-05 1.14169 0.247413 10326.7 10300.4 4.22258 -93082 
120 2.39e-05 1.56598 0.0434075 10283 10312 -1.51518 -85172.9 
121 2.41e-05 1.00846 0.0880066 10286.3 10310.7 14.303 -95518.2 
122 2.43e-05 1.24724 0.0389042 10301.7 10298.1 -0.934718 -84750.5 
123 2.45e-05 1.29984 0.00528594 10273.9 10293.1 10.4775 -87644.6 
124 2.47e-05 1.33014 -0.127424 10358 10309.2 2.19747 -86128.9 
125 2.49e-05 1.59076 0.0971477 10282.7 10292.3 1.40617 -84224.1 
126 2.51e-05 1.39462 -0.00570448 10270 10289 10.5476 -82370.4 
127 2.53e-05 2.27526 0.0770933 10249.6 10291 0.744269 -92334.8 
128 2.55e-05 2.29149 0.123156 10257.5 10289.9 -11.6432 -83087.2 
129 2.57e-05 1.81007 0.13128 10246.1 10290.5 5.60665 -89074.7 
130 2.59e-05 1.92381 -0.00774889 10287.5 10289 0.23279 -81382.6 
131 2.61e-05 2.76799 0.0374071 10318.9 10296.6 -2.65267 -89686.6 
132 2.63e-05 2.39539 0.183671 10357.3 10302 0.642455 -84963 
133 2.65e-05 2.4793 0.0480804 10309.4 10292.1 6.97925 -86254.2 
134 2.67e-05 2.51642 0.179504 10274.9 10302.7 -7.29875 -83719.6 
135 2.69e-05 2.33383 -0.0127962 10229.4 10309.5 -15.4706 -86275.2 
136 2.71e-05 3.38053 0.159449 10244.1 10286.4 -1.84577 -81801.5 
137 2.73e-05 3.0931 0.175152 10342.9 10301.7 -11.3514 -84207.8 
138 2.75e-05 2.33789 0.113325 10299.1 10311.5 -0.813823 -85714.7 
139 2.77e-05 2.21046 -0.0234384 10319.3 10301.9 3.69592 -79632.3 
140 2.79e-05 1.92351 0.0314254 10303.2 10304.3 2.74722 -84414.9 
141 2.81e-05 2.40378 0.334752 10363.4 10290.3 2.01155 -92095.6 
142 2.83e-05 1.95531 0.323073 10251.3 10309 7.39306 -86720.9 
143 2.85e-05 2.18393 0.12963 10344.1 10305.7 7.71204 -84815.9 
144 2.87e-05 2.32102 -0.0731862 10294.5 10285.7 -3.48027 -86590.4 
145 2.89e-05 2.53542 -0.107907 10326.9 10308.7 10.1138 -86767.4 
146 2.91e-05 1.14712 -0.038725 10313.1 10301.5 -6.92785 -80352.6 
147 2.93e-05 1.43856 -0.242011 10339.1 10286 5.61065 -85172 
148 2.95e-05 2.89016 -0.0275416 10352.4 10307.8 19.8844 -84573 
149 2.97e-05 2.8322 0.0274007 10321 10311.6 -5.70603 -86366.4 
150 2.99e-05 1.65949 0.268303 10285.7 10310.8 15.0542 -87625.1 
151 3.01e-05 1.86166 0.0636777 10280.1 10288.7 11.2461 -88105.6 
152 3.03e-05 1.58214 0.312281 10283.9 10298.9 3.5936 -84032 
153 3.05e-05 1.88521 0.0633209 10281.3 10292.6 4.37794 -86020.2 
154 3.07e-05 1.29688 0.267756 10306.7 10314.4 1.98501 -89648.1 
155 3.09e-05 1.50324 -0.0580032 10280.7 10297.9 -2.96513 -84150.1 
156 3.11e-05 0.809979 0.33113 10286.1 10305.2 1.41671 -81268.4 
157 3.13e-05 1.15185 -0.128499 10255.4 10302.7 4.6806 -91946.8 
158 3.15e-05 0.293139 -0.00545052 10227.2 10286.6 -1.84844 -87953.2 
159 3.17e-05 0.49969 0.0878708 10247 10317.4 2.56294 -89106.6 
160 3.19e-05 1.42293 0.29353 10256.6 10302.2 -5.27807 -90771.4 
161 3.21e-05 1.0679 0.211413 10283.4 10303.6 16.4282 -88170.5 
162 3.23e-05 1.28771 0.246368 10288.1 10300.2 1.20763 -85124.6 
163 3.25e-05 1.01459 0.138585 10249.1 10293.3 -0.750222 -85802 
164 3.27e-05 0.140155 0.25616 10249 10294.9 -0.19411 -86129 
165 3.29e-05 -0.247553 0.375288 10297.5 10287.7 -6.46785 -81139.3 
166 3.31e-05 0.465694 0.254794 10312.6 10281.5 -0.088294 -88980.5 
167 3.33e-05 0.706163 -0.216211 10289.6 10299.7 3.1378 -85209.9 
168 3.35e-05 0.455862 0.210111 10320.8 10300.1 0.890391 -87021.1 
169 3.37e-05 -0.565268 0.0683537 10289.5 10311 4.42603 -83675.9 
170 3.39e-05 0.427042 0.0189881 10347 10307.5 2.53683 -89208.8 
171 3.41e-05 -0.381006 0.00346331 10346.4 10318.7 5.10257 -73307.1 
172 3.43e-05 0.91863 0.191829 10294.8 10312.8 -0.682683 -88443.2 
173 3.45e-05 0.41145 0.145459 10305.3 10299 -5.20808 -84297.6 
174 3.47e-05 -0.131317 0.0412443 10300.4 10308.6 -4.72303 -96711.5 
175 3.49e-05 0.151247 0.293052 10300 10296.7 -5.3805 -86560.3 
176 3.51e-05 -0.5826 0.145344 10357.4 10303.6 6.0184 -86642.2 
177 3.53e-05 0.544941 -0.0779913 10272.5 10304.3 4.32562 -87649.5 
178 3.55e-05 0.223334 0.356585 10285.4 10296.4 -3.59212 -82010.5 
179 3.57e-05 1.48231 -0.253047 10255.8 10303 -8.04821 -89624.3 
180 3.59e-05 -0.432579 0.029626 10268.8 10297.4 -0.524903 -82524.3 
181 3.61e-05 -0.0677208 0.167217 10263 10311.3 7.90055 -90568.5 
182 3.63e-05 0.616105 -0.121773 10333.9 10302.6 -2.80468 -82413.7 
183 3.65e-05 1.53762 0.162036 10270.9 10305.5 18.8889 -89144.6 
184 3.67e-05 0.697105 -0.0206502 10271.7 10303.4 1.60039 -86327.7 
185 3.69e-05 -0.251299 -0.183626 10231.8 10305.3 -5.83528 -86045.8 
186 3.71e-05 -0.142122 0.0734707 10349.5 10304.3 7.89608 -85502.8 
187 3.73e-05 0.055202 0.00884293 10338 10304.8 -9.96026 -87495.3 
188 3.75e-05 0.186832 0.0247682 10346.2 10308.2 -6.63018 -87350.6 
189 3.77e-05 -0.395927 0.227784 10336.3 10314.2 -0.0578186 -88906.1 
190 3.79e-05 -0.296966 0.104175 10315.1 10312.8 -4.97351 -85460 
191 3.81e-05 -1.08765 -0.0663138 10346.8 10295.8 -7.5858 -80600.2 
192 3.83e-05 -2.46456 -0.0789145 10318.9 10301.1 -4.80597 -82424.5 
193 3.85e-05 -1.85967 0.347456 10328.7 10298.6 4.79713 -86257.6 
194 3.87e-05 -1.21889 0.133 10325 10316.5 -4.88031 -83342.9 
195 3.89e-05 -1.34483 0.0176154 10300.9 10308.3 -2.56028 -78717.8 
196 3.91e-05 -0.930832 -0.0286824 10298 10301.7 -6.79015 -83541.2 
197 3.93e-05 -2.26108 -0.215951 10293.1 10308.8 2.8861 -79253.8 
198 3.95e-05 -2.06553 0.283526 10331.5 10292.5 0.043429 -86913.3 
199 3.97e-05 -0.787165 0.344417 10388.6 10305.8 2.4671 -91453.9 
200 3.99e-05 -0.361116 -0.186026 10406 10362.3 -3.11241 -110795 
