ITEM: TIMESTEP
100000
ITEM: NUMBER OF CELLS
200
ITEM: BOX BOUNDS pp ss pp
0 0.0001
0 4e-05
0 0.0001
ITEM: CELLS id yc f_vel[1] f_vel[2] f_mom[1] f_mom[2] f_mom[3] f_q[*] 
1 1e-07 0.149769 0.055887 10896 10815.7 -5.43881 -82551.7 
2 3e-07 0.642051 -0.159872 10830.7 10793.7 10.53 -87589.8 
3 5e-07 -0.00933832 0.306507 10925.4 10813 3.37027 -96190.5 
4 7e-07 0.353583 -0.010308 10827.4 10800.4 1.25276 -87591.8 
5 9e-07 0.576643 0.360527 10758.1 10787.5 17.471 -90639.3 
6 1.1e-06 0.207699 0.18579 10850.3 10823.2 -14.1661 -96495.1 
7 1.3e-06 0.345451 -0.257561 10797.8 10792.4 11.2965 -89136.3 
8 1.5e-06 0.945076 -0.221942 10816.7 10785.4 -5.90576 -88191 
9 1.7e-06 0.657787 0.264566 10814.9 10805.5 17.2739 -94321.8 
10 1.9e-06 -0.622346 0.0634253 10860.4 10805.5 3.85288 -92284.9 
11 2.1e-06 -0.737441 -0.221647 10852.2 10805.7 -0.510978 -87801.7 
12 2.3e-06 -0.88783 0.275443 10782.5 10809.3 -18.0661 -92567.9 
13 2.5e-06 -0.813936 -0.15402 10726.7 10796 16.8024 -82260.2 
14 2.7e-06 -0.702139 0.00466932 10796.3 10796.7 -4.94124 -87670.7 
15 2.9e-06 -0.643422 -0.0882675 10772.2 10766.7 1.84035 -86575.3 
16 3.1e-06 -1.06259 0.151219 10807 10789.8 13.4631 -87594.7 
17 3.3e-06 -1.17222 -0.352582 10714 10802.5 -7.92802 -82004.4 
18 3.5e-06 -1.52139 -0.00250299 10786 10786.1 -15.2276 -88515.4 
19 3.7e-06 -0.263482 -0.00671674 10699.6 10797.2 -4.85093 -90662.1 
20 3.9e-06 -0.155327 0.0501719 10738 10779.9 -20.4228 -91193.4 
21 4.1e-06 -0.144382 0.179112 10820.8 10785.9 -6.46694 -91548.8 
22 4.3e-06 -0.11189 -0.316553 10770.2 10787.7 13.8931 -83536.8 
23 4.5e-06 0.343413 0.00531486 10765.2 10786.7 4.35124 -88014.1 
24 4.7e-06 1.2468 -0.0864539 10793.3 10777.6 7.25007 -90331.4 
25 4.9e-06 0.800192 -0.339976 10836.5 10792 10.8723 -85415.4 
26 5.1e-06 -0.832823 0.115404 10769.6 10787.8 10.6096 -89437.5 
27 5.3e-06 -0.767589 0.0205166 10790.5 10773.6 2.00258 -87331.5 
28 5.5e-06 -1.39068 -0.0646001 10783.5 10797.2 -0.603125 -89432.9 
29 5.7e-06 -1.0376 0.168225 10792.8 10793.8 11.092 -85103.3 
30 5.9e-06 -1.0048 -0.164724 10815.4 10792.1 10.0791 -82811.9 
31 6.1e-06 -1.09893 -0.140177 10795.1 10787.4 -4.47131 -85865.1 
32 6.3e-06 -0.262343 -0.125363 10764.6 10804.3 5.56199 -85160.6 
33 6.5e-06 -0.319501 -0.0769442 10776.2 10768 -2.76517 -89847.3 
34 6.7e-06 -0.580993 -0.0198683 10745.8 10792.8 10.9351 -90212.7 
35 6.9e-06 0.432972 -0.220738 10859.7 10796.1 3.50473 -91608.2 
36 7.1e-06 0.0596715 0.042438 10783.3 10771.4 13.2006 -90591.2 
37 7.3e-06 0.134713 -0.256978 10801.5 10789.9 -1.01891 -86157.5 
38 7.5e-06 -0.297549 -0.0384587 10838.8 10789.5 1.06078 -86513.5 
39 7.7e-06 -1.04806 -0.0282032 10759.2 10783.8 -9.25532 -87898.9 
40 7.9e-06 -1.65267 -0.0338148 10803.6 10788.1 2.01312 -88401.9 
41 8.1e-06 -0.845812 -0.0796717 10905.1 10776.9 8.41501 -83946.6 
42 8.3e-06 -2.03678 0.114798 10829.2 10777.6 17.859 -91793.9 
43 8.5e-06 -1.4387 0.193658 10744.8 10776 4.68704 -88805.3 
44 8.7e-06 -1.77785 -0.316895 10769.3 10791.5 -5.61405 -86692.4 
45 8.9e-06 -1.49344 -0.278198 10783.1 10764.1 -3.58886 -79750.3 
46 9.1e-06 -0.250286 0.0524668 10789.7 10774.8 -1.18641 -88042.9 
47 9.3e-06 -0.31673 0.0115598 10757 10782.9 4.49093 -88688.5 
48 9.5e-06 -0.32273 -0.16645 10727.2 10773.1 -3.85588 -86822.7 
49 9.7e-06 -1.10511 -0.107921 10800.3 10800.4 -4.79086 -84281 
50 9.9e-06 -0.090076 -0.241523 10746 10797.4 1.75608 -85145.4 
51 1.01e-05 0.764207 0.204639 10799.4 10787.9 -3.17296 -88583.1 
52 1.03e-05 0.425714 0.165776 10809.1 10803.3 3.94653 -90045.6 
53 1.05e-05 0.481194 -0.123336 10789.1 10758.4 -13.4129 -89572.8 
54 1.07e-05 -0.387775 0.122732 10788.2 10781.6 -12.3985 -86046.3 
55 1.09e-05 0.117724 0.20079 10816.9 10787.4 6.47105 -92567.5 
56 1.11e-05 -0.713916 -0.01709 10747.6 10775.1 3.53498 -90784.3 
57 1.13e-05 -0.869983 0.425977 10814.6 10784.3 -6.28655 -86181.2 
58 1.15e-05 0.0881247 0.0617219 10764.5 10761.3 -13.6922 -88598.6 
59 1.17e-05 -0.381319 0.32228 10783.9 10787.4 1.39815 -84690.2 
60 1.19e-05 -1.1709 -0.0579456 10687.8 10765 19.2315 -88286.5 
61 1.21e-05 -0.824771 0.238763 10723.2 10762.5 -6.32432 -100360 
62 1.23e-05 -1.6209 0.1647 10796.5 10791.2 5.98981 -90656.2 
63 1.25e-05 -1.12364 0.0170959 10767.7 10774.9 -6.51127 -93926.7 
64 1.27e-05 -1.53111 0.279488 10697.2 10800.8 6.85817 -95811.2 
65 1.29e-05 -2.60061 -0.147597 10783.1 10784.1 -4.69168 -87553.3 
66 1.31e-05 0.0347032 -0.197883 10750.8 10770.5 1.32954 -87292 
67 1.33e-05 -2.22024 0.163484 10789.4 10774.9 -12.8618 -91615.7 
68 1.35e-05 -2.20398 0.00549109 10738.6 10779.2 -17.5746 -86637.1 
69 1.37e-05 -2.81088 0.0245336 10778.5 10757.8 -9.11876 -91842.3 
70 1.39e-05 -1.72604 0.168017 10811.2 10776.7 -5.33751 -94792.3 
71 1.41e-05 -2.84301 0.0634343 10830.7 10787.5 -7.98597 -92880.2 
72 1.43e-05 -0.322421 0.0391368 10745.6 10773 -3.08551 -90949.4 
73 1.45e-05 -1.0496 0.0549375 10878.7 10774.6 -5.71313 -95553.6 
74 1.47e-05 -1.40447 0.115357 10680.1 10759 -0.705468 -91473.4 
75 1.49e-05 -1.22126 -0.0396268 10828 10776.2 11.1578 -88077.8 
76 1.51e-05 -0.785499 0.056231 10799.8 10762.7 -14.0374 -89940.1 
77 1.53e-05 -1.0499 0.235607 10753.5 10753.8 -5.38486 -87925.9 
78 1.55e-05 -1.07685 0.160653 10751 10779.2 -2.56505 -93263.7 
79 1.57e-05 -1.84708 0.0367836 10759 10768.9 -4.87822 -88118.9 
80 1.59e-05 -2.90299 0.166729 10772.8 10757 7.83662 -90305.6 
81 1.61e-05 -1.98416 -0.0617952 10781.4 10766.1 -7.61889 -91938.1 
82 1.63e-05 -1.35126 0.158491 10742.5 10768.2 -10.754 -93751.9 
83 1.65e-05 -2.84272 -0.237688 10755.2 10768 7.15687 -83882.3 
84 1.67e-05 -2.16906 0.0868705 10779.5 10770.7 10.5856 -90267.7 
85 1.69e-05 -1.48614 0.0886945 10814 10761.5 4.0132 -90204.6 
86 1.71e-05 -2.70999 0.00999552 10830.8 10796.5 12.4537 -86323.1 
87 1.73e-05 -3.487 0.0792844 10775 10765.9 -3.97942 -83983.8 
88 1.75e-05 -2.71065 -0.00105603 10769.2 10763.2 10.2778 -94149 
89 1.77e-05 -2.62191 0.106778 10809.7 10774.2 -3.05362 -91752.4 
90 1.79e-05 -1.98372 0.207208 10735.3 10764.6 -11.1571 -89663.2 
91 1.81e-05 -2.33609 0.214243 10779.7 10775.7 -8.99266 -96040.2 
92 1.83e-05 -1.7901 0.0672986 10791.7 10776.7 4.02696 -93618.6 
93 1.85e-05 -2.10944 0.0781314 10769.1 10777.5 -6.3033 -91889.7 
94 1.87e-05 -2.59262 -0.0676747 10744.3 10782.1 4.68613 -86225.9 
95 1.89e-05 -1.57062 -0.067332 10694.5 10759.8 -8.44612 -89699 
96 1.91e-05 -0.712069 -0.0151783 10757.7 10766.7 1.02858 -90983.9 
97 1.93e-05 -1.67723 0.110531 10770.1 10765.7 -3.71222 -88404.6 
98 1.95e-05 -0.93021 0.101119 10699.3 10774.1 2.66601 -95343.7 
99 1.97e-05 -1.30357 0.125719 10747.5 10769 -0.942092 -91448.5 
100 1.99e-05 -1.85358 0.0658152 10762.8 10756.2 7.73017 -97646.9 
101 2.01e-05 -1.88592 0.131724 10754.7 10761.5 -11.8119 -92956.3 
102 2.03e-05 -1.79286 0.0633288 10779.2 10769.4 4.12752 -89357.2 
103 2.05e-05 -1.75889 0.136903 10739.2 10774.4 -22.642 -94082.2 
104 2.07e-05 -1.89729 0.262533 10824.1 10766.7 -9.23154 -86999.5 
105 2.09e-05 -2.11593 0.316987 10877.5 10765.9 5.9453 -92291.2 
106 2.11e-05 -1.52457 -0.229178 10756.2 10774.2 -18.0093 -88009.1 
107 2.13e-05 -1.39501 0.0257881 10699.8 10753.9 5.47077 -90661 
108 2.15e-05 -2.34182 0.038396 10765.3 10760.4 -2.60238 -93021.5 
109 2.17e-05 -2.41829 0.192609 10826 10772.9 12.0389 -91787.1 
110 2.19e-05 -2.80822 0.194247 10740.1 10761.3 0.597313 -99315.1 
111 2.21e-05 -2.22821 0.0989935 10783.5 10757.2 -11.395 -88671 
112 2.23e-05 -3.15078 -0.137691 10795.9 10779.7 -13.6585 -84080.2 
113 2.25e-05 -2.0993 0.0671149 10793.8 10764.3 1.65128 -95216.9 
114 2.27e-05 -1.98539 -0.0662536 10807.3 10773.1 -14.9367 -92275 
115 2.29e-05 -0.655259 -0.448604 10750.6 10758.7 -10.3924 -88912.9 
116 2.31e-05 -1.82189 0.0888289 10722.3 10768 -0.488301 -89731.9 
117 2.33e-05 -0.637089 -0.00901409 10743.1 10780.7 -8.70125 -87324.3 
118 2.35e-05 -0.560881 0.271817 10784.8 10770.5 4.58726 -92801 
119 2.37e-05 -3.21556 -0.0581132 10746 10775.3 3.63882 -90830.2 
120 2.39e-05 -3.09232 0.267652 10723.3 10772.9 0.0167497 -92259.1 
121 2.41e-05 -0.780033 -0.129255 10787.4 10767 -0.604618 -92458 
122 2.43e-05 -2.2343 0.458868 10833.7 10756.3 4.37406 -92249.8 
123 2.45e-05 -1.92721 0.16505 10786.6 10754.5 -15.9654 -92149.3 
124 2.47e-05 -2.31149 0.00660027 10733.8 10755.1 -15.4576 -97448.2 
125 2.49e-05 -0.275435 0.0727945 10798.7 10773.1 -8.78714 -94073.5 
126 2.51e-05 -1.73991 -0.0297685 10791.9 10755.2 -13.8829 -94156.2 
127 2.53e-05 -0.900111 -0.0872615 10719.9 10762 -3.70822 -89843.5 
128 2.55e-05 -1.87312 0.136204 10783 10762.9 -5.04408 -94591.7 
129 2.57e-05 -2.85693 -0.253132 10743 10759.7 -17.1588 -88894.4 
130 2.59e-05 -0.68883 0.247254 10747 10760.8 -6.75098 -87730 
131 2.61e-05 -2.71044 0.0367217 10711.3 10751.4 -1.78757 -89365.7 
132 2.63e-05 -2.89291 0.0433195 10706.4 10761 0.933667 -94115.7 
133 2.65e-05 -3.64185 0.11378 10734.2 10772.9 6.16194 -94825.3 
134 2.67e-05 -2.69112 -0.192246 10763.3 10753.2 -13.8804 -87821.5 
135 2.69e-05 -1.78794 0.0318992 10793.5 10762.1 -15.8103 -92355.1 
136 2.71e-05 -2.77956 -0.290499 10714 10751.9 -17.4595 -85468.2 
137 2.73e-05 -2.68263 0.209928 10766 10761.6 -6.02347 -95076.6 
138 2.75e-05 -2.56453 -0.0723774 10789.6 10765.7 -2.1494 -88759.7 
139 2.77e-05 -3.6081 -0.337006 10740.4 10750.5 0.356771 -84575.4 
140 2.79e-05 -2.66586 -0.17078 10742.8 10760.9 -18.8635 -86721.7 
141 2.81e-05 -2.72917 -0.143573 10771.4 10765.9 -14.3092 -86736.9 
142 2.83e-05 -1.97496 -0.0279855 10717.4 10759.5 -16.7325 -82963.4 
143 2.85e-05 -4.43528 0.186446 10700.4 10747 -19.3048 -91654.1 
144 2.87e-05 -2.14564 -0.198188 10675.2 10772.4 -6.38889 -87475.1 
145 2.89e-05 -2.70364 0.0594435 10760.3 10759.6 -14.2887 -89542.1 
146 2.91e-05 -2.10024 0.0454155 10725.3 10737.5 8.99262 -88625.5 
147 2.93e-05 -1.6924 -0.00833983 10792.2 10756.7 -11.5914 -89762.2 
148 2.95e-05 -2.6714 -0.0808122 10854.9 10758.3 -21.9006 -86973.1 
149 2.97e-05 -3.62576 -0.16051 10881.1 10758 -4.6115 -86939.3 
150 2.99e-05 -2.23102 0.0477179 10754.1 10761.1 -16.5253 -89973 
151 3.01e-05 -2.19269 0.0380261 10782.7 10765.7 -11.1582 -91951.9 
152 3.03e-05 -2.54848 -0.0241011 10832.7 10754.1 -1.85079 -93317.4 
153 3.05e-05 -1.61502 0.311679 10806 10756.8 -6.45251 -88108.8 
154 3.07e-05 -2.15736 0.27792 10793 10740.4 4.523 -92986.2 
155 3.09e-05 -1.52654 0.14445 10784.6 10749.5 -5.73831 -92754.8 
156 3.11e-05 -2.49143 -0.0135594 10843.4 10749.1 0.0611639 -86856.4 
157 3.13e-05 -1.21538 -0.178246 10794.3 10753.9 -9.78345 -90359.7 
158 3.15e-05 -1.11582 0.0746328 10842.8 10769.1 -14.3619 -90166.1 
159 3.17e-05 -1.15109 -0.150476 10771.3 10735.9 -5.52447 -90699.7 
160 3.19e-05 -0.877586 0.192259 10752.5 10749.2 -11.5986 -92071.7 
161 3.21e-05 -2.39235 0.164421 10772.3 10756 -5.42843 -88979.6 
162 3.23e-05 -1.48037 -0.46467 10776.8 10758.8 -3.28619 -84705.1 
163 3.25e-05 -0.391122 0.0671994 10826 10755 -17.7111 -90046.2 
164 3.27e-05 -1.31261 -0.26656 10741.1 10750.8 -19.7324 -80649.4 
165 3.29e-05 -2.23603 0.117589 10754.1 10760.3 3.05568 -90812.1 
166 3.31e-05 -2.37423 -0.102527 10810.2 10752.4 -24.2231 -90887.7 
167 3.33e-05 -2.5229 -0.303449 10766.8 10754.4 -12.6216 -89087.2 
168 3.35e-05 -3.1654 0.0820045 10640.7 10738.2 -16.5846 -88678.2 
169 3.37e-05 -0.976977 -0.0306225 10674.2 10749 -17.4029 -87588.7 
170 3.39e-05 -1.80867 -0.102293 10697.8 10742.4 -27.2316 -88605.5 
171 3.41e-05 -0.528661 0.203506 10772.1 10758.8 -8.31597 -91196.1 
172 3.43e-05 0.832067 0.172125 10734.1 10753.9 -8.81745 -90939.1 
173 3.45e-05 -0.379701 -0.0852825 10720.3 10742.6 -15.6276 -91872 
174 3.47e-05 -1.20043 -0.133387 10778.5 10740.8 -15.2101 -88754.7 
175 3.49e-05 -0.125124 0.148265 10805.1 10757 -1.76244 -88878.1 
176 3.51e-05 -0.73291 0.189692 10749.8 10755.5 -19.3169 -87798.2 
177 3.53e-05 1.31921 0.119612 10849.7 10747.6 -15.1937 -88890 
178 3.55e-05 -0.620028 0.179794 10844.2 10740.6 -4.37415 -89674.3 
179 3.57e-05 -0.513811 -0.24913 10842.3 10762.8 1.98256 -89054.1 
180 3.59e-05 -0.0195596 -0.155974 10754 10743 -18.6008 -88728.3 
181 3.61e-05 -0.106338 0.0044122 10775.8 10745.2 5.31513 -91462.7 
182 3.63e-05 -0.615443 0.075871 10741.5 10741.4 -12.8638 -83916.4 
183 3.65e-05 -0.0728298 -0.150318 10721.6 10753.8 -0.900658 -88174.4 
184 3.67e-05 0.794619 -0.145469 10708.3 10748.8 -18.7629 -85285.9 
185 3.69e-05 -0.291468 0.0799095 10778.3 10751.5 -14.7356 -88408.1 
186 3.71e-05 0.44008 -0.0939234 10708.4 10744.7 -8.32391 -89670.9 
187 3.73e-05 0.821713 -0.212303 10765.1 10723.2 -11.4698 -84574.8 
188 3.75e-05 1.21194 0.149787 10759.4 10744.5 -14.699 -91617.9 
189 3.77e-05 0.480348 -0.189828 10708 10741 -18.8365 -80783.6 
190 3.79e-05 0.80577 0.0103426 10738.4 10744.6 -0.817866 -90880 
191 3.81e-05 0.184828 -0.086631 10808.2 10737.8 -15.8078 -86198.9 
192 3.83e-05 0.623774 -0.0180973 10742 10737.9 -12.2268 -89436.8 
193 3.85e-05 1.48003 0.0717239 10794.9 10753.1 -12.0259 -90559.7 
194 3.87e-05 0.781607 0.0586266 10773.4 10746.2 -14.5718 -87028.5 
195 3.89e-05 1.75666 0.0635319 10810.9 10731.9 0.102937 -86817.4 
196 3.91e-05 1.15635 0.0119304 10865.8 10748 -2.54803 -90175.2 
197 3.93e-05 0.999653 -0.0709204 10789.6 10746.9 -9.48501 -83211.1 
198 3.95e-05 2.24653 -0.164765 10771.6 10758.7 -17.4536 -83658.1 
199 3.97e-05 1.1627 -0.00745647 10812 10753.9 -9.4351 -86626.9 
200 3.99e-05 0.184203 -0.456382 10804.8 10774.8 -9.40897 -80060.7 
