ITEM: TIMESTEP
100000
ITEM: NUMBER OF CELLS
200
ITEM: BOX BOUNDS pp ss pp
0 0.0001
0 4e-05
0 0.0001
ITEM: CELLS id yc f_vel[1] f_vel[2] f_mom[1] f_mom[2] f_mom[3] f_q[*] 
1 1e-07 -0.560536 0.12109 11498.6 11471.1 6.03909 -52298.4 
2 3e-07 -0.657833 -0.242835 11506.4 11479.2 1.07781 -55210.3 
3 5e-07 -1.1374 0.061954 11530.3 11477.2 -6.13682 -54400.2 
4 7e-07 -1.40296 -0.0152178 11385.4 11463.2 -6.81792 -48121.5 
5 9e-07 -0.651683 -0.123924 11417.9 11488.3 -12.09 -52757.3 
6 1.1e-06 -0.156506 -0.126389 11356.7 11462.6 -6.36145 -55595.9 
7 1.3e-06 -0.240816 -0.118062 11466.6 11474.1 -7.43545 -53199.9 
8 1.5e-06 -0.597573 0.0251315 11316.4 11483.4 -3.36144 -52767.8 
9 1.7e-06 0.149156 -0.119301 11384.4 11451.8 4.57931 -50980.1 
10 1.9e-06 0.750997 -0.103058 11327.9 11469.4 -3.80154 -53006.8 
11 2.1e-06 0.0673845 -0.104635 11330.4 11472.5 -6.33908 -55007.4 
12 2.3e-06 -0.356479 -0.0576272 11461.3 11452.7 3.02114 -52029 
13 2.5e-06 -0.762632 -0.0789459 11399.7 11468.4 11.1187 -54636.8 
14 2.7e-06 -0.268792 -0.12862 11403.9 11466.8 -8.65398 -55655.8 
15 2.9e-06 -1.11112 -0.0769953 11420.5 11469.5 -4.33336 -52497.9 
16 3.1e-06 -1.90209 -0.0848561 11550.1 11479.7 -2.30555 -54421.6 
17 3.3e-06 -1.53658 -0.117315 11469.3 11443.9 -3.26439 -50266.4 
18 3.5e-06 -1.14507 -0.0841846 11469 11468 2.1208 -51091.7 
19 3.7e-06 -0.25526 -0.101357 11426.6 11464.3 -6.74361 -54769.6 
20 3.9e-06 -0.209156 -0.0895317 11495.2 11465.3 6.97693 -53847.6 
21 4.1e-06 -0.866687 -0.118365 11521.1 11475.3 -14.6053 -50439 
22 4.3e-06 -0.610124 -0.017558 11516.9 11473.5 11.9388 -49019.9 
23 4.5e-06 -0.351851 -0.219644 11563.5 11463.3 -8.69585 -53165.6 
24 4.7e-06 -0.165292 -0.0306016 11560.4 11465 -0.347249 -52002.7 
25 4.9e-06 0.0217736 -0.206557 11456.3 11473.8 1.42814 -48860.3 
26 5.1e-06 -0.599684 -0.201746 11485.5 11466.9 -4.49757 -54030.6 
27 5.3e-06 0.184984 0.0304573 11497.5 11463.6 6.24571 -50216.4 
28 5.5e-06 -0.290362 -0.170153 11394.9 11464.4 -5.63061 -52470.3 
29 5.7e-06 -0.397408 0.0688622 11496.8 11456.8 -1.14927 -55613 
30 5.9e-06 1.86375 -0.0511527 11506.9 11460.6 -5.08054 -53940.3 
31 6.1e-06 1.38566 -0.042487 11452.4 11465 10.3204 -55927.3 
32 6.3e-06 0.245881 0.00901762 11413.3 11464.2 -5.30554 -50032.6 
33 6.5e-06 -0.53689 -0.0776322 11398.7 11465 -3.42811 -52994.7 
34 6.7e-06 -0.396771 -0.204874 11437.4 11471.7 4.35201 -51292.8 
35 6.9e-06 -0.908713 -0.0496923 11450.7 11457 7.72378 -54803.6 
36 7.1e-06 0.07795 -0.112419 11435.7 11464.2 4.89875 -56148.7 
37 7.3e-06 1.0878 -0.00618349 11311.6 11463.2 8.84324 -56716.4 
38 7.5e-06 0.660256 -0.095079 11424.4 11466.7 -4.57696 -51834.3 
39 7.7e-06 0.727385 -0.132027 11466.9 11452.7 0.188745 -54331.8 
40 7.9e-06 0.315313 0.0689096 11545.5 11460.1 -6.02859 -52647.1 
41 8.1e-06 -0.759066 -0.0883476 11499.2 11463.4 -3.37688 -54686.2 
42 8.3e-06 -1.29306 -0.108292 11476.9 11470.4 3.71737 -51929.1 
43 8.5e-06 -1.27023 -0.0195917 11364.5 11455.2 -5.20371 -55677.1 
44 8.7e-06 -0.321684 -0.0975518 11334.3 11470.2 -2.07202 -55718 
45 8.9e-06 0.661784 0.0519254 11354.6 11454.8 4.98088 -54427.3 
46 9.1e-06 0.656153 -0.0744129 11302.5 11464.7 4.41369 -54634.5 
47 9.3e-06 1.0262 0.000651041 11309.5 11454 2.3451 -53802.7 
48 9.5e-06 -0.804711 -0.174414 11367.4 11466.1 -4.05853 -55632.8 
49 9.7e-06 0.427064 0.025145 11379.2 11459 5.47357 -51230.7 
50 9.9e-06 0.437761 -0.0720327 11421.9 11470.3 -0.955608 -54440.5 
51 1.01e-05 1.35374 -0.0289589 11387.6 11471.3 11.0141 -55928 
52 1.03e-05 0.576101 0.0310662 11403.3 11457.5 11.3063 -55156.7 
53 1.05e-05 -0.33349 -0.0383919 11482.8 11440.5 -2.15329 -52663.8 
54 1.07e-05 -0.845621 -0.156973 11473.8 11466.3 -5.63007 -51041.8 
55 1.09e-05 -0.906557 0.0745347 11509.1 11460.3 4.39392 -55255.6 
56 1.11e-05 -0.851338 -0.0666529 11532.1 11461.3 1.08473 -53948.4 
57 1.13e-05 -1.23843 0.0477377 11473.8 11460.7 -5.49099 -53615.9 
58 1.15e-05 0.254968 0.0321335 11495.5 11457.6 3.22214 -56255.2 
59 1.17e-05 -1.18185 -0.0298927 11527.1 11454.6 -0.660219 -55186.9 
60 1.19e-05 -0.343586 -0.0213772 11503.2 11443.1 -4.10022 -54418.7 
61 1.21e-05 -0.319761 0.0930395 11498.9 11467.6 -9.03823 -56124 
62 1.23e-05 -1.63085 0.0674887 11505 11457.9 2.55206 -56125.8 
63 1.25e-05 -0.581956 0.0530891 11437.5 11461.8 1.67465 -54516.5 
64 1.27e-05 -1.57258 0.0133479 11455.8 11449.9 -8.51199 -58518 
65 1.29e-05 -0.741981 0.135873 11469.6 11458.3 -8.10141 -54725.7 
66 1.31e-05 -1.44633 -0.0372282 11487.7 11468.1 -6.99517 -53524.3 
67 1.33e-05 -1.15228 0.146139 11428 11456.5 -5.60519 -54499 
68 1.35e-05 -2.16947 0.0631149 11426.6 11457.8 -13.3928 -56005.7 
69 1.37e-05 -1.62955 -0.0808464 11459.7 11455.4 -1.12774 -54195.1 
70 1.39e-05 -0.964466 0.16347 11422.9 11451.8 -3.17376 -56043.2 
71 1.41e-05 -1.04781 -0.011828 11437 11462.3 -0.820225 -53738.2 
72 1.43e-05 -2.66173 0.117898 11456.4 11456.5 1.34409 -52806.6 
73 1.45e-05 -3.33663 0.033762 11421.2 11463.7 -0.167385 -54809.1 
74 1.47e-05 -2.66452 -0.0651158 11396.3 11454.4 -0.0902892 -55750.6 
75 1.49e-05 -2.41562 0.192752 11417.6 11467.3 -4.5907 -53511 
76 1.51e-05 -2.67109 -0.0465988 11441.8 11453.3 -2.35544 -54067 
77 1.53e-05 -2.44044 0.177827 11446.5 11461.9 5.35756 -52999.1 
78 1.55e-05 -3.17149 0.131197 11519.7 11465.2 1.69542 -52300.6 
79 1.57e-05 -2.86428 -0.00348782 11488.4 11463.9 3.05975 -53646.9 
80 1.59e-05 -2.27722 0.149826 11464.1 11455.1 0.963087 -56280.5 
81 1.61e-05 -1.5577 0.0646138 11518.9 11471.6 16.9972 -55945.7 
82 1.63e-05 -1.784 0.0471325 11558.6 11458.2 -6.17628 -54626.9 
83 1.65e-05 -0.684236 0.172247 11494.8 11454.6 15.3273 -53345.5 
84 1.67e-05 -1.68941 0.120098 11454.2 11470.9 -8.76485 -53829.4 
85 1.69e-05 -3.52967 0.096678 11446.8 11456.7 -0.959332 -55304.6 
86 1.71e-05 -3.16692 0.0578826 11405.8 11452.2 -7.36757 -53577.7 
87 1.73e-05 -3.21389 0.0699897 11506 11457.7 8.50909 -52745 
88 1.75e-05 -2.90871 0.085224 11537.2 11464.2 -0.544826 -55716 
89 1.77e-05 -1.60541 0.0742691 11451.9 11461.1 4.08849 -55277.7 
90 1.79e-05 -1.33287 0.0971921 11459.3 11462.7 -1.16111 -55598.6 
91 1.81e-05 -2.33894 0.257392 11500.3 11462 2.57087 -58104.9 
92 1.83e-05 -1.90933 0.171531 11538.8 11460.8 -3.01474 -56007.5 
93 1.85e-05 -1.9421 0.120777 11532.3 11459.1 0.431614 -55214.4 
94 1.87e-05 -2.18872 0.172105 11518.9 11461.5 5.56441 -53444 
95 1.89e-05 -2.14149 0.0426033 11446.3 11469.8 -1.97043 -59160.2 
96 1.91e-05 -1.87237 0.177633 11432.8 11469.1 9.94133 -56289.9 
97 1.93e-05 -2.57963 0.207466 11383.5 11462.8 4.21006 -61111.8 
98 1.95e-05 -2.65154 0.122565 11374.1 11456 7.99311 -58144.5 
99 1.97e-05 -3.5055 0.09922 11320.8 11460.1 14.2046 -59258.7 
100 1.99e-05 -2.64011 0.349371 11449.7 11455.7 6.50412 -57339 
101 2.01e-05 -1.87837 0.0717306 11509.8 11465.1 11.8761 -56461.4 
102 2.03e-05 -1.30578 0.197473 11528.5 11452 -3.6518 -60067.4 
103 2.05e-05 -2.23141 0.0599444 11533.5 11451 -5.37947 -54356.6 
104 2.07e-05 -2.13279 0.150848 11539.1 11469.3 7.60213 -52725 
105 2.09e-05 -3.10458 0.0948042 11425.3 11452.3 5.01359 -54798 
106 2.11e-05 -2.23703 -0.00179616 11432.4 11481.7 2.28183 -55512 
107 2.13e-05 -2.33897 0.0460351 11441.7 11456.6 4.83003 -54086.1 
108 2.15e-05 -3.05533 0.243989 11532.8 11464.5 -2.17262 -56790.4 
109 2.17e-05 -2.80964 -0.0367328 11528.9 11459.4 3.12941 -53390.1 
110 2.19e-05 -2.61432 0.216997 11518.5 11464.2 -6.22946 -53878.6 
111 2.21e-05 -3.15646 0.0792553 11512.3 11461.7 3.48661 -54752 
112 2.23e-05 -3.99543 0.0440132 11444.4 11465.1 5.90882 -52004.8 
113 2.25e-05 -4.09565 -0.00782869 11548.6 11459.1 5.10535 -54487.8 
114 2.27e-05 -4.09926 0.223136 11549.7 11459.5 11.9898 -53104.5 
115 2.29e-05 -5.04639 0.131812 11498 11460.3 -2.28737 -53115.8 
116 2.31e-05 -4.05946 0.145383 11541.5 11463.3 7.08857 -53820.1 
117 2.33e-05 -4.95048 0.0937128 11529.8 11463.7 13.3219 -56645.2 
118 2.35e-05 -4.28048 0.15258 11527.4 11465 7.95812 -62792 
119 2.37e-05 -5.04445 0.222728 11411.4 11472.9 -1.71989 -58560.6 
120 2.39e-05 -4.67867 0.055828 11400.6 11459.5 3.68842 -53094.1 
121 2.41e-05 -4.52781 0.0421009 11416.4 11464.6 -3.61646 -54053.6 
122 2.43e-05 -5.91175 -0.109675 11482.5 11451.1 11.3096 -54456.6 
123 2.45e-05 -4.80214 0.320236 11438.1 11473.2 -3.42058 -59398.5 
124 2.47e-05 -4.36248 0.0168431 11398.9 11469.9 -0.0899728 -57163.4 
125 2.49e-05 -5.58758 0.0195317 11366.4 11459.6 3.04118 -52923 
126 2.51e-05 -5.43491 0.176605 11264.8 11464.1 6.87184 -58153.4 
127 2.53e-05 -6.28794 -0.0380487 11323.6 11456 -3.93899 -52366.5 
128 2.55e-05 -6.41793 0.191543 11374.5 11465.8 -3.34054 -52902.2 
129 2.57e-05 -5.09655 -0.0186513 11461.9 11470.1 -0.852557 -59009.1 
130 2.59e-05 -4.8943 0.0364605 11469.1 11456.9 2.57783 -54883.7 
131 2.61e-05 -4.90363 0.224798 11461.2 11458.9 3.96981 -52541.2 
132 2.63e-05 -3.49211 0.0652492 11574.9 11455 6.44441 -55088.5 
133 2.65e-05 -2.66603 0.111052 11486.6 11460.4 2.96513 -53468.4 
134 2.67e-05 -3.39794 0.0935562 11419.6 11453.4 -1.9612 -57045.6 
135 2.69e-05 -3.68976 -0.0238004 11446.4 11468.3 8.22141 -54301.1 
136 2.71e-05 -3.94683 -0.0290737 11441.2 11466.4 -2.19509 -52708.7 
137 2.73e-05 -3.7199 0.146839 11450.3 11465.7 -1.09189 -54891 
138 2.75e-05 -4.44642 0.240008 11467.8 11461.8 14.0536 -54630.7 
139 2.77e-05 -3.26117 -0.0236414 11455.3 11464.3 0.0366153 -55733.3 
140 2.79e-05 -3.90185 0.127153 11457.4 11455.3 -3.2683 -56594.3 
141 2.81e-05 -3.45316 -0.0735993 11425.1 11475.4 3.96861 -52414.4 
142 2.83e-05 -3.13906 0.120098 11464 11455.3 -8.06805 -54812.8 
143 2.85e-05 -3.30098 0.219804 11397.7 11471.1 -1.86438 -57661.8 
144 2.87e-05 -3.57825 -0.0484314 11419.4 11462.4 -3.31436 -57658 
145 2.89e-05 -4.1067 0.036395 11423.5 11467.7 9.49904 -55532.4 
146 2.91e-05 -3.227 0.143063 11383.1 11471.4 9.25701 -51973 
147 2.93e-05 -4.32562 0.0401076 11346.4 11452.6 -2.59456 -58098.5 
148 2.95e-05 -5.24506 0.151793 11391 11477 -8.09725 -58068.4 
149 2.97e-05 -4.9221 0.122185 11347.4 11448.9 3.30241 -57860.1 
150 2.99e-05 -4.63389 0.0842661 11282.1 11478.5 4.06322 -55037.1 
151 3.01e-05 -4.29407 0.0940022 11383.6 11452.1 -0.31599 -53878.9 
152 3.03e-05 -4.16486 0.269101 11524.1 11457.9 6.51841 -55882.4 
153 3.05e-05 -3.12486 -0.0618114 11447.7 11462.2 3.69597 -56391.8 
154 3.07e-05 -3.34501 0.104132 11462.7 11461.1 2.23921 -56645.4 
155 3.09e-05 -2.75039 0.0529637 11486.1 11455.6 6.04129 -55546.7 
156 3.11e-05 -2.47096 0.225244 11462.8 11471.2 -2.6783 -53084.7 
157 3.13e-05 -2.67965 0.0285023 11446 11466.9 -1.63405 -56901.1 
158 3.15e-05 -1.95613 -0.0884402 11405.3 11455.8 1.74276 -54251.2 
159 3.17e-05 -2.57604 -0.0252263 11438.9 11467.6 -5.65706 -51496.9 
160 3.19e-05 -2.84582 0.292597 11408.2 11455.1 -2.41184 -56182.1 
161 3.21e-05 -3.0538 -0.0460822 11381.3 11466.4 -3.25114 -55271.1 
162 3.23e-05 -2.62294 0.0656021 11397.5 11461.5 5.16191 -57551.6 
163 3.25e-05 -2.58221 -0.000623277 11398.6 11462.2 0.174481 -53938 
164 3.27e-05 -3.54165 -0.0172462 11360.4 11458.4 -6.40709 -53974.9 
165 3.29e-05 -3.37969 0.113569 11463.1 11464.7 2.77718 -52269 
166 3.31e-05 -2.92795 0.0310653 11518.9 11469.6 1.97839 -58151.1 
167 3.33e-05 -3.06795 -0.0723845 11516.2 11463.3 -3.61439 -56423.3 
168 3.35e-05 -1.73172 0.298498 11419.6 11480.7 -5.75356 -58660.5 
169 3.37e-05 -1.98463 -0.0376028 11416.8 11453.8 1.04115 -57025.8 
170 3.39e-05 -1.84069 0.11656 11449.9 11475.7 1.30758 -54925.8 
171 3.41e-05 -2.81409 -0.041967 11467.6 11456.7 -1.55073 -55576.4 
172 3.43e-05 -2.46159 0.255421 11481.2 11472.2 -1.90376 -61809.3 
173 3.45e-05 -1.86064 -0.0678961 11385.3 11469.6 -1.46924 -58369.2 
174 3.47e-05 -1.07806 0.0939569 11402.9 11464.2 -3.1036 -55255.7 
175 3.49e-05 -0.889483 0.151495 11397.3 11462 -0.34399 -56626.3 
176 3.51e-05 -2.12416 -0.0474701 11446.7 11473.9 -8.95995 -54264 
177 3.53e-05 -1.41527 -0.0776009 11466 11470.8 -1.25489 -54441.7 
178 3.55e-05 -1.82197 0.0453645 11483.8 11466.5 -2.31251 -52079.6 
179 3.57e-05 -2.26669 0.232757 11554.7 11459.8 -5.38702 -58438.7 
180 3.59e-05 -1.15753 -0.03925 11513.3 11461.7 9.22544 -56209 
181 3.61e-05 -0.886246 0.0918206 11576.4 11462.6 -8.86004 -54034.2 
182 3.63e-05 -0.347231 -0.103163 11515 11463.9 2.92733 -55083.7 
183 3.65e-05 -0.513824 0.128581 11520.7 11460.2 2.09809 -52793.2 
184 3.67e-05 0.00554984 0.0861214 11499.6 11468.2 2.37192 -52875.4 
185 3.69e-05 -0.500972 -0.0822882 11531.8 11469.1 2.87875 -57540.7 
186 3.71e-05 0.37198 0.248856 11431.8 11470.9 -9.22069 -56678.5 
187 3.73e-05 0.130005 0.0655578 11428.2 11452.4 9.72677 -54575 
188 3.75e-05 -0.263099 -0.005085 11526.8 11453.6 -3.3289 -57880.1 
189 3.77e-05 -2.19251 0.173518 11382.8 11462.2 -3.21015 -58585.1 
190 3.79e-05 -2.4849 0.0412103 11423 11457.9 5.51774 -56182.3 
191 3.81e-05 -1.39736 -0.106765 11402.2 11463.1 -1.93566 -54555.9 
192 3.83e-05 1.09617 0.0469984 11479.7 11458.3 4.31517 -59658.9 
193 3.85e-05 1.06568 0.136539 11482.6 11471.6 -3.27101 -55257.6 
194 3.87e-05 0.205499 -0.108129 11474.4 11444.6 3.84625 -58330.1 
195 3.89e-05 0.0319048 -0.0724894 11460.2 11470.6 -0.141871 -55637.6 
196 3.91e-05 0.595523 0.0272994 11394.7 11462 -1.33326 -58309.9 
197 3.93e-05 -0.0304899 0.124143 11445.1 11455.8 0.121886 -53971 
198 3.95e-05 -0.149557 0.00744681 11533.7 11467.1 1.63107 -56551.7 
199 3.97e-05 -1.13548 0.134455 11541.9 11454.8 5.6174 -54362.6 
200 3.99e-05 -0.224222 -0.0127498 11485.1 11453.5 5.69742 -52985.9 
