ITEM: TIMESTEP
100000
ITEM: NUMBER OF CELLS
200
ITEM: BOX BOUNDS pp ss pp
0 0.0001
0 4e-05
0 0.0001
ITEM: CELLS id yc f_vel[1] f_vel[2] f_mom[1] f_mom[2] f_mom[3] f_q[*] 
1 1e-07 0.551361 0.00466963 10542.3 10498 -9.58673 -79416.3 
2 3e-07 0.712592 0.0283598 10501.7 10499.4 -1.38863 -81812.5 
3 5e-07 0.931999 0.0919731 10467.8 10486.1 1.65242 -83074.4 
4 7e-07 0.332426 -0.0630642 10456.5 10498.2 -0.398726 -81913.3 
5 9e-07 0.0606091 0.0611925 10480 10484.3 -11.2007 -80890 
6 1.1e-06 1.34719 0.0431438 10476.2 10489.8 5.05093 -83118.5 
7 1.3e-06 0.466222 0.0141665 10455.3 10500.4 -0.854138 -83151.4 
8 1.5e-06 1.76116 0.0257416 10550.5 10496.4 -2.48722 -82614 
9 1.7e-06 2.11297 0.0478227 10436.2 10480.8 -6.37241 -81186.9 
10 1.9e-06 1.50261 0.0332816 10530.8 10496.3 6.66738 -81361.5 
11 2.1e-06 1.42447 0.0514255 10535 10496.3 -13.9092 -86208.6 
12 2.3e-06 1.90681 0.0743671 10561.6 10491.2 3.65127 -82163.9 
13 2.5e-06 2.24407 0.0225914 10542.8 10490.6 -3.29143 -84500.2 
14 2.7e-06 1.87306 0.0495954 10545.2 10498.4 -3.43923 -81578 
15 2.9e-06 1.9691 0.0657319 10526.2 10490.6 -5.89584 -84436.1 
16 3.1e-06 2.35187 0.0507336 10542 10491.8 2.08364 -81940.5 
17 3.3e-06 1.12906 0.0658549 10561.1 10496.8 3.07441 -80536.8 
18 3.5e-06 1.44675 0.0195608 10527.7 10493.6 -2.46158 -83926.5 
19 3.7e-06 0.504388 -0.0363794 10486.8 10493.1 -4.6706 -84683.8 
20 3.9e-06 1.00405 0.106643 10473.1 10487.7 -6.43715 -81607.4 
21 4.1e-06 0.838865 -0.0968982 10472 10488.2 -5.87382 -81994 
22 4.3e-06 1.21001 -0.0223834 10483 10506.9 -1.17156 -80413.5 
23 4.5e-06 2.47522 -0.0420325 10533 10496.4 -3.61433 -82683.5 
24 4.7e-06 2.32972 -0.0518869 10532.6 10496.9 -4.12641 -83714.7 
25 4.9e-06 2.49977 0.00148736 10594.5 10488.3 -4.29466 -78368.1 
26 5.1e-06 2.4525 -0.0626368 10597.1 10490 7.65579 -81122.8 
27 5.3e-06 3.33283 -0.0464057 10542.9 10498.2 -2.10892 -84280.9 
28 5.5e-06 2.8196 -0.0573919 10505.7 10493.8 -5.99327 -80874.1 
29 5.7e-06 2.16355 -0.0365022 10427.4 10489.5 -5.24762 -80498 
30 5.9e-06 2.71477 -0.0507419 10525.1 10490.3 -9.66217 -77869.7 
31 6.1e-06 1.86562 -0.0993734 10500.7 10484.6 0.0094417 -81898 
32 6.3e-06 1.83811 0.0211572 10463.9 10488.5 5.1609 -78656.5 
33 6.5e-06 2.07601 -0.0375442 10481.1 10490.4 0.0271627 -82187.8 
34 6.7e-06 2.6876 -0.119183 10470.6 10487.3 1.8231 -81739.3 
35 6.9e-06 3.57707 -0.0101584 10478.4 10492.5 0.403199 -83429.8 
36 7.1e-06 3.25935 -0.0608272 10503.4 10489.7 3.15165 -82220.5 
37 7.3e-06 2.57071 -0.0732696 10463 10493.2 8.89987 -81782.9 
38 7.5e-06 2.89311 -0.0363937 10573.3 10500.7 5.93556 -79573.9 
39 7.7e-06 3.17588 -0.111335 10525 10496.4 1.44611 -79962.3 
40 7.9e-06 2.85288 -0.0692669 10518.7 10503.3 2.00688 -78275.9 
41 8.1e-06 2.1345 -0.109387 10484 10492.3 -1.65435 -80008.5 
42 8.3e-06 1.94979 -0.0469013 10517.1 10503 -11.2979 -79528.7 
43 8.5e-06 1.70758 -0.0556821 10461.7 10483.2 2.56372 -83466.8 
44 8.7e-06 1.3018 0.0213884 10383.8 10504.9 -3.61305 -79475.6 
45 8.9e-06 1.39854 -0.0882376 10465.7 10494 -5.21857 -79361 
46 9.1e-06 1.8602 -0.0662825 10539.9 10503.1 12.4284 -84835.8 
47 9.3e-06 2.3394 0.0367739 10491 10493.7 -8.39994 -78254 
48 9.5e-06 2.58583 0.00969475 10511.1 10495.3 -0.599028 -82545.5 
49 9.7e-06 2.48085 0.0287231 10525.6 10502.6 -11.1148 -81675.7 
50 9.9e-06 1.60809 -0.0254483 10529.8 10504.2 -0.750864 -79417.2 
51 1.01e-05 2.50023 -0.0387706 10475.6 10494.3 -2.36298 -82673.9 
52 1.03e-05 3.05307 0.0136106 10551.7 10497.6 -0.810449 -79745.6 
53 1.05e-05 2.66768 -0.00755592 10466.9 10505.2 6.41321 -83074.9 
54 1.07e-05 2.71763 0.00175721 10488.8 10488.9 0.737755 -80076.7 
55 1.09e-05 3.14672 0.011916 10462.9 10493.7 -0.818295 -81089.6 
56 1.11e-05 2.37304 -0.0761264 10462 10494.8 -3.18771 -81104.3 
57 1.13e-05 1.99465 0.0952371 10494.8 10499.7 -11.3916 -82710.5 
58 1.15e-05 1.71634 -0.0658408 10496.3 10497.7 -2.94654 -81106.6 
59 1.17e-05 1.9532 -0.00289146 10437 10499.7 -8.47124 -80996.2 
60 1.19e-05 1.29244 -0.0268656 10437.6 10494.6 -8.04851 -86125.9 
61 1.21e-05 1.58823 -0.00879544 10477.5 10493 -3.82307 -83690.6 
62 1.23e-05 1.9243 0.0603288 10500 10498 -0.513818 -81948.4 
63 1.25e-05 1.03989 0.0408363 10468.6 10488.4 -2.17655 -80113.1 
64 1.27e-05 0.446434 -0.00869496 10404.4 10497.8 -0.142291 -81326.9 
65 1.29e-05 -0.564123 0.0486958 10484.3 10498.1 -0.745381 -79567.2 
66 1.31e-05 -0.0424477 0.0338534 10536.1 10498.1 -3.6802 -80842.2 
67 1.33e-05 0.135123 -0.00386358 10505 10497.5 -14.406 -82670.8 
68 1.35e-05 0.73238 -0.0355409 10552.8 10503.1 5.21692 -81983.6 
69 1.37e-05 0.166946 0.0118046 10500.5 10513.5 0.545742 -82072.7 
70 1.39e-05 0.608154 0.00356578 10465 10487.3 -1.04887 -78946.9 
71 1.41e-05 0.356127 0.0560458 10427.6 10503 2.07399 -76537 
72 1.43e-05 0.0960344 -0.0747594 10473.6 10502.6 -8.77395 -83311.5 
73 1.45e-05 -0.501184 0.0864393 10437 10496.8 -5.81522 -79930.4 
74 1.47e-05 0.839217 -0.0309918 10500.3 10493.5 -2.92696 -82956.7 
75 1.49e-05 1.52296 0.0568648 10534.7 10495 -6.75857 -78554.5 
76 1.51e-05 1.53351 -0.000437541 10542.4 10496.5 -4.1719 -80820.1 
77 1.53e-05 1.33753 0.00120636 10518.9 10494 1.06387 -80729.3 
78 1.55e-05 3.16774 -0.0831742 10411 10489.7 1.72433 -80256.3 
79 1.57e-05 3.80281 -0.000818275 10421.9 10501.8 -10.5719 -81167.2 
80 1.59e-05 3.26048 0.0575206 10488.3 10496.5 -5.07437 -80594.1 
81 1.61e-05 3.04234 0.0209835 10478.7 10498.5 -8.69386 -82688 
82 1.63e-05 3.415 -0.0230204 10495.8 10500.5 -2.97292 -83575.7 
83 1.65e-05 3.59348 0.0262257 10482.9 10502.5 -10.6756 -78854.7 
84 1.67e-05 3.19009 0.155081 10482.5 10496 -4.15394 -78339.2 
85 1.69e-05 3.09431 -0.030414 10474.3 10497.5 -8.07081 -83024.1 
86 1.71e-05 2.08181 0.018555 10527.6 10490.6 1.51906 -83719 
87 1.73e-05 2.44737 -0.00277551 10607.4 10510.3 -10.1953 -85055.1 
88 1.75e-05 1.7765 0.161327 10606.3 10492.5 -5.00468 -82577.9 
89 1.77e-05 1.66076 0.126087 10560.2 10500.6 -4.03988 -81112.8 
90 1.79e-05 1.8638 -0.0918966 10561.7 10510 6.65446 -83470.8 
91 1.81e-05 1.58776 0.0482751 10435.1 10487 -13.1525 -78378.9 
92 1.83e-05 0.889683 0.0126935 10526.3 10514.2 3.8186 -86085 
93 1.85e-05 0.573642 0.00759014 10507.7 10500.7 0.550988 -82212.8 
94 1.87e-05 1.0981 0.0336338 10502.4 10490.5 -9.87218 -83934.6 
95 1.89e-05 -0.0389303 0.145886 10428.8 10488.2 0.520255 -83880.6 
96 1.91e-05 -0.273092 0.0690244 10413.9 10499.6 -3.9534 -78811 
97 1.93e-05 -1.30154 -0.0683084 10460.6 10491.2 -3.91178 -81592.9 
98 1.95e-05 -0.671317 0.111539 10513.3 10495.8 -10.9827 -86256.2 
99 1.97e-05 -1.12122 0.0325863 10505.8 10498.3 -3.40791 -82158.7 
100 1.99e-05 0.879598 0.139369 10529.2 10501.5 -9.36331 -81001 
101 2.01e-05 1.98806 -0.00827394 10541.1 10499.7 2.253 -84933.7 
102 2.03e-05 3.43406 0.0362692 10445.6 10497.6 -4.72538 -83989.7 
103 2.05e-05 2.75006 0.0371366 10474.2 10518.2 -3.90265 -79804.7 
104 2.07e-05 2.83628 0.170718 10462.2 10483.9 -3.47123 -80124.9 
105 2.09e-05 2.46987 -0.0848464 10511 10496 -7.17177 -83615.9 
106 2.11e-05 2.51174 -0.0745697 10507.1 10498.1 0.332759 -83575.1 
107 2.13e-05 2.0655 0.192833 10439.1 10511.3 -11.3425 -80137 
108 2.15e-05 2.32825 -0.149956 10408.3 10503.9 5.43597 -83130.6 
109 2.17e-05 1.70619 0.0785702 10443.5 10493.3 -4.5813 -82864.7 
110 2.19e-05 0.810252 -0.00041312 10529.1 10508.3 4.18596 -80318.2 
111 2.21e-05 0.942167 -0.00110632 10538.8 10501.8 -5.1391 -84436.1 
112 2.23e-05 1.16333 -0.0326512 10594.6 10499.9 -2.79519 -82072.2 
113 2.25e-05 1.44955 -0.124842 10521.8 10504.6 4.98758 -80122 
114 2.27e-05 0.964315 0.0252542 10459.6 10501.8 -13.9987 -83557.5 
115 2.29e-05 1.60521 0.0448634 10516.5 10491 -10.5115 -80057.9 
116 2.31e-05 2.66322 -0.246421 10562.1 10496.3 -8.00915 -83676.4 
117 2.33e-05 2.25706 -0.0183994 10452.8 10502.6 -5.72194 -83746.2 
118 2.35e-05 0.959373 -0.089272 10463.1 10487.3 -1.43078 -82026.9 
119 2.37e-05 0.0282188 -0.128112 10577.8 10511.5 2.35783 -79494.5 
120 2.39e-05 -0.319529 0.0272292 10550.3 10503.7 -10.7179 -80024 
121 2.41e-05 -0.66263 -0.0749091 10484.4 10508.6 2.90836 -84913.9 
122 2.43e-05 -1.71222 -0.0975668 10493 10491 -11.6207 -83915 
123 2.45e-05 -0.524332 -0.0120166 10483.7 10508.2 0.372846 -83073.7 
124 2.47e-05 -0.217031 -0.181094 10378.3 10503.2 -6.70006 -83674 
125 2.49e-05 0.732313 0.0155238 10420.7 10496.1 -7.67995 -80251.5 
126 2.51e-05 1.37505 0.00454369 10502.2 10509.3 -1.25911 -78956.3 
127 2.53e-05 1.63565 -0.183378 10431.3 10493.4 0.978352 -86162 
128 2.55e-05 1.3752 0.0972828 10479.7 10521.7 -3.71871 -84606.8 
129 2.57e-05 -0.285925 -0.0670116 10569.2 10505.8 -11.0907 -84098.6 
130 2.59e-05 -0.272109 -0.00324763 10511.1 10496.7 1.3498 -83428.5 
131 2.61e-05 -1.12937 -0.0941139 10396.8 10495.5 -7.34438 -83809.2 
132 2.63e-05 -1.25761 -0.0445417 10490.9 10504.3 -1.427 -83156.1 
133 2.65e-05 -0.970507 -0.0398504 10460.1 10502.1 -4.91808 -84567.9 
134 2.67e-05 -1.74071 -0.0759905 10472.9 10511.2 -5.28229 -82952 
135 2.69e-05 -1.95322 0.0287171 10529.2 10503.1 4.00105 -84298.5 
136 2.71e-05 -1.5066 -0.0501055 10454.6 10499 -1.6787 -85715.8 
137 2.73e-05 -1.08549 -0.00325555 10493.1 10504.4 3.50247 -86763.7 
138 2.75e-05 -0.145635 -0.0776399 10521.4 10509.1 -4.46157 -84404.6 
139 2.77e-05 -0.502982 0.110276 10444.7 10502.9 -5.81107 -84693.2 
140 2.79e-05 -0.278386 -0.0606809 10443.5 10510.4 -2.00646 -85557.4 
141 2.81e-05 -1.03142 0.00287723 10516.8 10505.8 -12.6302 -81383.9 
142 2.83e-05 -1.88741 0.0834077 10543.1 10506.6 -7.67051 -84286.1 
143 2.85e-05 -1.84053 -0.0835139 10514.9 10497.3 -2.87727 -86199.9 
144 2.87e-05 -2.62807 0.0125756 10449.8 10514.6 -7.644 -82979.4 
145 2.89e-05 -1.98053 -0.023164 10402.9 10499.1 -11.4767 -82623.7 
146 2.91e-05 -2.17231 -0.0622231 10371.5 10504.5 -5.79401 -86307.8 
147 2.93e-05 -2.79026 0.0292262 10474.5 10519.6 -15.5571 -84839.7 
148 2.95e-05 -3.13797 -0.0405816 10539.1 10501.5 0.509647 -86026.3 
149 2.97e-05 -3.0664 -0.0145721 10417.2 10505.9 -12.2898 -82496.8 
150 2.99e-05 -2.65605 8.74453e-05 10531.1 10502.3 -4.40559 -84029.9 
151 3.01e-05 -2.6951 -0.089374 10627.5 10498.6 -11.0245 -85392.6 
152 3.03e-05 -3.42218 0.0725267 10521.1 10493.1 4.00664 -84107.8 
153 3.05e-05 -2.66584 -0.181356 10517.3 10511.4 -14.0236 -86599.6 
154 3.07e-05 -0.862495 0.155618 10455.6 10501.8 -7.93 -84763.5 
155 3.09e-05 -1.10151 -0.0636489 10486.6 10503.5 -1.61469 -85043 
156 3.11e-05 -2.8399 -0.0707041 10493.4 10509.5 1.57159 -84099 
157 3.13e-05 -2.25111 0.0152423 10422.6 10500.4 -0.248284 -86686.5 
158 3.15e-05 -2.06376 -0.0811642 10372.9 10489.6 -17.0473 -85447.1 
159 3.17e-05 -0.166072 0.0507469 10527.1 10504.5 -14.9616 -86359.4 
160 3.19e-05 -1.63241 -0.0839261 10606.8 10504.6 -1.24238 -88000.5 
161 3.21e-05 -2.45309 -0.0652956 10594.7 10508.3 -0.444713 -85647.8 
162 3.23e-05 -2.03272 -0.120941 10488 10496.6 -9.27875 -87912 
163 3.25e-05 -2.22263 0.0128326 10484.8 10506.3 -8.90882 -86832.2 
164 3.27e-05 -0.674182 -0.0172256 10490.3 10498.3 2.61219 -84469.1 
165 3.29e-05 0.674072 0.0446768 10528.1 10513.9 -5.65016 -79925.8 
166 3.31e-05 1.55882 -0.195398 10498.1 10505 -11.9393 -85865 
167 3.33e-05 1.43084 0.0760174 10565.5 10503.6 -10.74 -84505 
168 3.35e-05 0.50236 -0.0727266 10575 10507.4 5.9172 -84678.4 
169 3.37e-05 0.753316 -0.059727 10657.3 10505.3 -8.28563 -88756 
170 3.39e-05 0.459333 0.0307415 10593.4 10500.4 1.33637 -84196 
171 3.41e-05 0.0728502 -0.201289 10525.2 10506.1 -13.0152 -87058.2 
172 3.43e-05 0.428732 0.0542516 10446.3 10507.3 -5.28234 -82340.9 
173 3.45e-05 0.20883 -0.145529 10554.1 10511.1 -5.61334 -85477.2 
174 3.47e-05 -0.483846 -0.226953 10549.1 10501 -4.54034 -86136.2 
175 3.49e-05 0.309055 -0.0254996 10583.4 10493.5 7.47025 -87022.2 
176 3.51e-05 1.00397 0.0151122 10480 10519.3 -8.812 -82601.4 
177 3.53e-05 0.998896 -0.0538317 10538.4 10488.8 -7.17659 -83234.5 
178 3.55e-05 0.0769621 -0.154604 10579.4 10506.7 -9.45778 -90327.3 
179 3.57e-05 -1.94581 -0.0495721 10594.3 10500.7 -1.72893 -89440.1 
180 3.59e-05 -1.34853 -0.193403 10576 10511.2 -1.89023 -81978.8 
181 3.61e-05 0.331655 0.0286578 10529.8 10497 -5.03466 -83280.5 
182 3.63e-05 1.69005 -0.0660079 10485.3 10506.4 -5.1529 -87951.8 
183 3.65e-05 1.51903 -0.119304 10542.7 10513.2 -7.14751 -84682.5 
184 3.67e-05 -0.105517 0.163255 10579.5 10503.7 1.74991 -81176.7 
185 3.69e-05 -0.867749 -0.0895981 10553.2 10512.4 -2.83819 -86795.8 
186 3.71e-05 -1.5807 0.0198677 10550.8 10496.3 -5.34235 -86455.1 
187 3.73e-05 -1.47348 -0.0358633 10567.3 10508.9 6.80409 -85817 
188 3.75e-05 0.150332 0.0370073 10532.7 10508.2 6.11419 -86502.4 
189 3.77e-05 0.469383 -0.0272441 10526.8 10510 -4.59639 -86059.1 
190 3.79e-05 0.0869057 0.0354433 10572.6 10500.9 7.62004 -85815.9 
191 3.81e-05 -0.519315 0.115855 10558.2 10512 -1.36359 -89935.7 
192 3.83e-05 -0.729714 -0.0399481 10437.9 10508.3 -13.9822 -84721.5 
193 3.85e-05 -0.819995 -0.0504132 10451.7 10501.7 -5.52648 -84324.2 
194 3.87e-05 0.336302 0.0451472 10383.4 10501.4 1.78009 -89053.4 
195 3.89e-05 1.53368 0.103946 10443.3 10515.1 1.89543 -84160.6 
196 3.91e-05 0.167091 -0.0171083 10482.8 10511.5 -4.30393 -84439.6 
197 3.93e-05 0.0878567 -0.000465823 10510.3 10506.8 2.38031 -83948.2 
198 3.95e-05 -0.145882 0.153651 10503.2 10500.8 -1.86564 -83268 
199 3.97e-05 -0.207712 -0.0731671 10514.8 10505.2 -11.0336 -88456 
200 3.99e-05 1.49056 -0.0536079 10539.8 10495.7 3.53351 -84100.2 
