ITEM: TIMESTEP
200000
ITEM: NUMBER OF CELLS
200
ITEM: BOX BOUNDS pp ss pp
0 0.0001
0 4e-05
0 0.0001
ITEM: CELLS id yc f_vel[1] f_vel[2] f_mom[1] f_mom[2] f_mom[3] f_q[*] 
1 1e-07 0.53504 0.00944288 10480.1 10490.3 -0.956037 -79462.7 
2 3e-07 0.631022 -0.00650392 10488.5 10492.5 3.88895 -80313.3 
3 5e-07 1.44274 0.0180606 10473.2 10486.7 -0.889915 -81200.4 
4 7e-07 0.803374 -0.0139177 10463.4 10487.1 5.46626 -80238.4 
5 9e-07 0.895517 -0.00557127 10447.9 10485.5 -2.67734 -79108.2 
6 1.1e-06 1.16973 0.0251358 10465.9 10490.1 0.100713 -81535.7 
7 1.3e-06 0.891861 -0.0122089 10490 10489 -2.40764 -80038.2 
8 1.5e-06 1.29487 -0.00871146 10510.1 10489.7 -0.0301288 -80260.2 
9 1.7e-06 0.76928 -0.0212341 10489.8 10488.4 1.03707 -81519.8 
10 1.9e-06 0.503285 -0.00374427 10499.4 10487.2 1.02997 -79769.6 
11 2.1e-06 0.48943 0.000928233 10498.1 10492 3.02619 -82787.3 
12 2.3e-06 0.455741 -0.0201768 10518.3 10489.6 2.73234 -80491.4 
13 2.5e-06 0.936663 -0.0223449 10494.2 10490 -2.59425 -81678.2 
14 2.7e-06 0.608034 0.0215304 10480.8 10485.7 -3.9701 -79888.3 
15 2.9e-06 0.605677 -0.00629893 10472.3 10490.6 -4.06876 -80383.8 
16 3.1e-06 1.22527 0.012188 10482.3 10489.1 -3.29389 -81441 
17 3.3e-06 0.87514 -0.00502575 10498 10490.4 2.20416 -79976.9 
18 3.5e-06 1.17639 0.0164358 10508.4 10493.1 -2.4406 -80764.7 
19 3.7e-06 1.103 -0.00901897 10479 10494.9 1.29521 -80156.3 
20 3.9e-06 1.30723 0.00451883 10495.6 10487 -7.05462 -81058 
21 4.1e-06 1.38776 -0.0150345 10501.1 10490.1 -4.62811 -79527.5 
22 4.3e-06 0.953191 -0.0209211 10484.6 10492.3 -0.645643 -79793.7 
23 4.5e-06 1.5687 -0.0111268 10521.7 10486.3 -2.64847 -81107.2 
24 4.7e-06 1.85415 -0.0216369 10499.7 10494.1 -1.5233 -79841.6 
25 4.9e-06 1.88099 -0.0102201 10525.8 10485.7 -1.38876 -79487.8 
26 5.1e-06 1.45799 -0.0289954 10533 10487.3 -1.06954 -79639.6 
27 5.3e-06 1.30428 -0.0274714 10552.3 10491.6 2.49722 -80223.5 
28 5.5e-06 1.02433 -0.022277 10486.6 10490.8 -2.41805 -79838.3 
29 5.7e-06 1.31823 -0.0226874 10459.6 10491.7 -0.291163 -79327.6 
30 5.9e-06 0.873287 -0.021338 10511.8 10488.2 -0.130512 -78844.8 
31 6.1e-06 0.201365 -0.0485681 10500.9 10488.9 1.56092 -80146.7 
32 6.3e-06 0.542472 -0.0323274 10485.5 10486 0.047548 -79631.6 
33 6.5e-06 0.493503 -0.0195485 10495.4 10488 0.684546 -79028.1 
34 6.7e-06 0.909155 -0.0441494 10471.6 10486.5 -4.26589 -78972.5 
35 6.9e-06 1.07747 -0.0532787 10524.7 10490.1 0.390215 -81259.2 
36 7.1e-06 1.39307 -0.0288048 10469.6 10489.4 2.90698 -79566.8 
37 7.3e-06 0.703398 -0.0259218 10496.2 10486.8 1.08036 -80220 
38 7.5e-06 0.643105 -0.0625483 10536.7 10488.6 -0.504723 -79380.9 
39 7.7e-06 0.868899 -0.0279751 10478.9 10492.1 2.07074 -79166 
40 7.9e-06 1.19893 -0.0652503 10474.3 10488.7 -0.154374 -77772.7 
41 8.1e-06 0.96978 -0.0292889 10464.9 10489.5 -0.997066 -79006.7 
42 8.3e-06 0.603371 -0.0434456 10473.2 10491 -4.75974 -80466.5 
43 8.5e-06 -0.0597545 -0.0444217 10489.8 10481.7 -1.29427 -78968.9 
44 8.7e-06 -0.209969 -0.0399199 10489 10489.1 -1.42019 -80618 
45 8.9e-06 0.246198 -0.0239319 10512.6 10491.8 -1.33288 -78532.8 
46 9.1e-06 0.522219 -0.0321063 10515.4 10491.3 0.891693 -79960.7 
47 9.3e-06 0.963691 -0.0179015 10494.3 10489.2 -2.04727 -79721.2 
48 9.5e-06 0.717019 -0.00974339 10469.1 10488.5 -0.464882 -81268.8 
49 9.7e-06 0.692666 -0.0231736 10475 10488.2 0.983323 -79228.3 
50 9.9e-06 0.873936 -0.00242407 10494.2 10488.3 -3.02479 -79517.5 
51 1.01e-05 1.56644 -0.0264545 10516.7 10484.7 0.659101 -80531.8 
52 1.03e-05 2.14791 0.000794389 10483.6 10490 -6.11615 -79593.4 
53 1.05e-05 1.24806 -0.0210068 10443.3 10488 1.62146 -80608 
54 1.07e-05 1.25563 -0.00521644 10459.2 10487.4 -3.26205 -78837.5 
55 1.09e-05 1.55648 -0.0192794 10439.4 10487.1 4.71556 -80094.6 
56 1.11e-05 1.71154 -0.0323412 10460.2 10490.6 -6.84491 -80492.9 
57 1.13e-05 1.92295 -0.0249644 10491.3 10489.3 -1.73308 -81412.6 
58 1.15e-05 1.65873 -0.0189605 10454.7 10486.1 -3.99425 -80280.3 
59 1.17e-05 1.39004 -0.0260328 10460.1 10492.9 1.30534 -80111.9 
60 1.19e-05 1.24172 -0.0305984 10457.6 10487.6 -2.44559 -80465.9 
61 1.21e-05 1.59703 -0.0361773 10506.1 10488.5 -4.49269 -79564.4 
62 1.23e-05 1.26732 -0.0374543 10526.8 10493.6 0.425336 -80410.7 
63 1.25e-05 0.143877 -0.0187245 10503.9 10487.6 -0.577231 -80946.3 
64 1.27e-05 0.0836278 -0.032892 10469.5 10488.2 1.31155 -80521.4 
65 1.29e-05 -0.296893 -0.0311895 10471.3 10492.7 -1.82604 -80125.2 
66 1.31e-05 0.453665 -0.0584731 10452.8 10492 -1.16566 -79641.1 
67 1.33e-05 0.159727 -0.000530981 10484.3 10489.3 -9.46293 -78475.6 
68 1.35e-05 0.541183 -0.047984 10498.5 10496.1 0.963039 -79461.3 
69 1.37e-05 0.466179 -0.016313 10477.8 10490.2 1.00094 -80518.1 
70 1.39e-05 0.330972 -0.0189615 10480.4 10481.5 -1.69211 -77836.6 
71 1.41e-05 -0.369258 -0.0582773 10427.3 10493.2 -2.60598 -77976.2 
72 1.43e-05 -0.691096 -0.0236621 10469.4 10488.3 1.38185 -79965.6 
73 1.45e-05 -1.52089 -0.0205496 10449.9 10490.7 0.108961 -80202.1 
74 1.47e-05 -0.838706 -0.0331485 10480.2 10485.1 -2.45185 -79842.9 
75 1.49e-05 -0.32585 -0.0403059 10484 10489.6 -1.64287 -79832.1 
76 1.51e-05 -0.449149 -0.0201403 10464.1 10484 -0.449946 -78607.9 
77 1.53e-05 -0.0654086 -0.0326218 10484.2 10486.2 3.1937 -78928.6 
78 1.55e-05 0.0182253 -0.0485063 10427.4 10488.6 -0.686494 -78679.1 
79 1.57e-05 -0.0660196 -0.0474578 10421.9 10485.7 -4.70216 -79375.7 
80 1.59e-05 0.110886 -0.00723105 10473.7 10487.2 -2.89225 -80065.7 
81 1.61e-05 -0.243506 -0.0387677 10477.2 10487.7 0.304761 -80250.8 
82 1.63e-05 0.432901 -0.0343619 10470.9 10490.6 -0.688737 -79947.9 
83 1.65e-05 0.501369 -0.0190013 10481.7 10490.7 -5.21311 -80006.6 
84 1.67e-05 0.480803 -0.0278345 10497.9 10486.7 4.76584 -79276.9 
85 1.69e-05 0.724942 -0.0227229 10490.5 10485 -2.88129 -80948.9 
86 1.71e-05 0.670126 -0.0093745 10479.8 10488 1.20924 -80156.9 
87 1.73e-05 0.40874 -0.0307513 10559.7 10487.9 -4.32663 -80547.9 
88 1.75e-05 0.129465 -0.0134496 10560.3 10489.3 -0.460628 -78768.4 
89 1.77e-05 -0.502808 0.00759417 10533.2 10489.2 -0.874822 -80378.3 
90 1.79e-05 -0.0600222 -0.0158502 10494.4 10489.7 7.38317 -80496.9 
91 1.81e-05 0.250296 -0.000902532 10472.6 10489.6 -2.36961 -78410.8 
92 1.83e-05 0.0273029 -8.10033e-05 10493.4 10490.9 2.06617 -79604 
93 1.85e-05 -0.315581 -0.0242904 10511.2 10490.8 0.114127 -80019 
94 1.87e-05 -0.469379 -0.0222173 10553.2 10482.1 -4.06829 -80014 
95 1.89e-05 -1.03516 -0.0164908 10507.3 10486.1 -5.87368 -81180.7 
96 1.91e-05 -1.36641 -0.0264379 10497.5 10483.3 3.04257 -79174.7 
97 1.93e-05 -1.26701 0.00536692 10465.5 10494.5 -4.8287 -79799.3 
98 1.95e-05 -0.62917 -0.0289733 10488.2 10484.2 -0.312138 -80736.3 
99 1.97e-05 -1.10175 -0.0268896 10474.5 10491.9 -3.97696 -79224.3 
100 1.99e-05 -0.466043 -0.0429226 10490 10488.2 -0.901883 -79585.5 
101 2.01e-05 -0.291292 0.00836005 10520.3 10491.4 0.793103 -80307.2 
102 2.03e-05 0.260805 -0.0489292 10482.2 10486.8 1.2335 -79897.8 
103 2.05e-05 -0.00384863 -0.0105671 10500.4 10491.8 -0.745677 -76905.2 
104 2.07e-05 0.210688 -0.00370468 10473.5 10486.7 -2.09897 -79289.8 
105 2.09e-05 -0.330162 -0.0159163 10466.1 10486.6 0.280718 -79714.9 
106 2.11e-05 -0.793402 -0.0194819 10490 10490.1 0.0489908 -80759.3 
107 2.13e-05 -1.02389 -0.0302114 10488.4 10487.9 0.102114 -77997.8 
108 2.15e-05 -1.09167 -0.0222982 10467.8 10498.1 3.19316 -80702.4 
109 2.17e-05 -1.23816 -0.00892946 10491.9 10495 3.24642 -79456.3 
110 2.19e-05 -1.86244 -0.00886454 10476.3 10494.5 -0.366594 -79764.6 
111 2.21e-05 -1.71192 -0.0326208 10508.1 10487.2 3.21109 -80507 
112 2.23e-05 -1.60133 0.00655113 10498.5 10489.8 -2.65203 -79817 
113 2.25e-05 -1.18471 -0.0528036 10449.7 10492.8 2.9922 -79685.5 
114 2.27e-05 -2.28447 -0.0103888 10461.5 10490.3 -5.3799 -79753 
115 2.29e-05 -2.33903 -0.0204289 10523.4 10488.5 -1.75212 -79985.6 
116 2.31e-05 -1.72787 -0.0201859 10559.2 10488.1 -4.08691 -79315.6 
117 2.33e-05 -2.61459 -0.0330086 10517.4 10485.5 -0.200719 -78934.4 
118 2.35e-05 -3.46247 -0.0251826 10499 10489.2 3.30583 -79865.4 
119 2.37e-05 -4.18184 -0.00200007 10543.1 10494 4.33121 -79892.8 
120 2.39e-05 -3.36081 -0.027505 10514.1 10489.5 -4.67468 -79754.2 
121 2.41e-05 -2.75059 -0.00048808 10453.1 10490.5 2.42576 -79335.2 
122 2.43e-05 -2.59924 -0.0239757 10490.8 10489.3 -1.90409 -79033.8 
123 2.45e-05 -2.36544 0.00966661 10487.4 10488.8 -1.11211 -79670.1 
124 2.47e-05 -2.36813 -0.0219695 10447.4 10490.3 -4.75852 -79715.8 
125 2.49e-05 -2.36331 0.0464708 10484.9 10490.8 -0.988075 -79507.8 
126 2.51e-05 -2.61336 -0.0263734 10502.6 10487.4 4.03743 -78489.2 
127 2.53e-05 -2.64949 0.0356673 10456.4 10497 -0.59075 -77711.2 
128 2.55e-05 -2.4359 -0.0204976 10456.5 10495.3 -0.10583 -79702.5 
129 2.57e-05 -3.2136 0.0117556 10439.7 10489 -1.56797 -81056 
130 2.59e-05 -2.81214 0.0207436 10453.6 10492.6 1.33484 -80111.8 
131 2.61e-05 -3.13457 -0.00285519 10439.7 10489.5 0.154302 -80624.2 
132 2.63e-05 -3.03354 0.00207416 10468.3 10490 0.308108 -80513.2 
133 2.65e-05 -2.72842 -0.0114211 10457 10489.7 0.345537 -80552.8 
134 2.67e-05 -3.05209 -0.00558038 10499.9 10490 0.117685 -78690.4 
135 2.69e-05 -2.90876 0.0103443 10529.1 10491.4 1.0526 -78010 
136 2.71e-05 -2.93596 0.00121605 10479.7 10491.8 0.978011 -80354.4 
137 2.73e-05 -2.93876 -0.00377661 10463.1 10490.6 -0.128525 -79898.9 
138 2.75e-05 -1.98007 0.00905443 10477.9 10490.3 -0.815672 -79098.5 
139 2.77e-05 -2.14669 0.00517734 10464.9 10495.8 1.08586 -78979 
140 2.79e-05 -1.84967 -0.016643 10459.3 10493.1 -2.24245 -78757.1 
141 2.81e-05 -2.0556 0.0110866 10470.8 10490.6 -3.90189 -79592.4 
142 2.83e-05 -2.11639 0.00620045 10498.9 10493.7 -0.791657 -79815.4 
143 2.85e-05 -2.64782 0.0291841 10542.5 10490.3 1.44539 -77118.3 
144 2.87e-05 -2.05989 -0.0332946 10477.3 10494.3 1.48775 -80585.3 
145 2.89e-05 -2.0902 0.0308074 10452.8 10487.9 -4.19229 -80613.3 
146 2.91e-05 -2.54773 -0.0153659 10445.1 10495.4 1.83904 -80638.4 
147 2.93e-05 -3.0108 0.0174534 10428.1 10492.8 -1.16991 -79898.3 
148 2.95e-05 -1.8362 0.0114023 10481.9 10491.7 2.0141 -79212.4 
149 2.97e-05 -2.14239 0.0268884 10484.2 10492.3 -4.57342 -77539.7 
150 2.99e-05 -1.80939 0.0161616 10497.4 10489.9 -1.63896 -80363.1 
151 3.01e-05 -1.92333 -0.00567017 10524.3 10491.4 0.0905062 -78317.2 
152 3.03e-05 -2.33171 0.0375184 10485.5 10490.5 1.70064 -80648.9 
153 3.05e-05 -2.11083 -0.0108945 10480.3 10488.8 -2.65815 -78958.6 
154 3.07e-05 -2.15519 0.0010815 10432 10488.7 1.01546 -80288.4 
155 3.09e-05 -1.72409 0.00485759 10459.4 10487.5 -3.4344 -78802.3 
156 3.11e-05 -1.85503 -0.00453802 10490.4 10494.8 4.21877 -78474.1 
157 3.13e-05 -1.81744 0.0101575 10430.4 10487.8 2.23112 -79484.1 
158 3.15e-05 -1.41838 -0.00200133 10401.3 10491.4 -5.45672 -78814.1 
159 3.17e-05 -0.713792 0.0096123 10490.8 10490.8 0.211812 -80282.2 
160 3.19e-05 -1.34864 0.0161076 10491.6 10487.5 -3.08524 -80084.1 
161 3.21e-05 -1.01467 -0.000954319 10504.2 10491.9 -0.983717 -79885.4 
162 3.23e-05 -0.284414 -0.0140781 10499.6 10489.3 -3.94138 -79408.3 
163 3.25e-05 -0.610836 -0.00112294 10473.8 10490.2 1.06307 -80942 
164 3.27e-05 0.483079 -0.0181147 10479.3 10493.4 4.20656 -80256.5 
165 3.29e-05 -0.35052 0.0101989 10462.8 10489.7 -5.50316 -79587.8 
166 3.31e-05 -0.381006 -0.0145202 10454.8 10489.2 -4.05333 -81628 
167 3.33e-05 -0.442578 -0.040589 10497.3 10486.2 -2.46317 -79583.1 
168 3.35e-05 -0.556746 -0.0115196 10506.5 10490.3 -1.96913 -80165.2 
169 3.37e-05 0.218431 -0.0129973 10578.8 10493.7 -2.72075 -81763.3 
170 3.39e-05 0.106178 -0.0351241 10532.3 10487.1 -1.09361 -80237.2 
171 3.41e-05 -0.663963 -0.0321505 10495.6 10492.4 -1.20674 -78434.8 
172 3.43e-05 0.00357854 -0.0205132 10485.4 10492.9 -0.837773 -79854.5 
173 3.45e-05 -0.811754 -0.0197644 10529 10494.5 -5.49289 -80432.2 
174 3.47e-05 -1.01057 -0.0534829 10500.7 10485.2 -0.747663 -80559.5 
175 3.49e-05 -1.11931 -0.00149234 10531.9 10491.3 -0.164586 -80400.4 
176 3.51e-05 -0.749986 -0.0242876 10533.5 10492.9 2.21532 -79292.2 
177 3.53e-05 -1.00782 -0.0291647 10503.7 10489.2 -2.09261 -80473.9 
178 3.55e-05 -1.56391 -0.053153 10516.7 10489 -4.55604 -82020.2 
179 3.57e-05 -1.91896 -0.0262639 10527.2 10490.3 -4.53006 -79847.7 
180 3.59e-05 -1.64909 -0.0378511 10515.9 10486.5 -2.55939 -79267 
181 3.61e-05 -0.741142 -0.0058531 10503.9 10492.9 -0.582555 -79252.3 
182 3.63e-05 -0.510954 -0.0295271 10462.1 10495.4 -2.33144 -79641.4 
183 3.65e-05 -0.863873 -0.0222515 10476.1 10489.8 -5.24051 -79316.6 
184 3.67e-05 -1.15509 -0.044691 10516 10490.3 -0.333964 -80649.9 
185 3.69e-05 -0.296634 -0.0286407 10498.7 10487.9 -4.72095 -80886.8 
186 3.71e-05 -0.317513 0.00676126 10539.4 10488 3.00026 -80990.9 
187 3.73e-05 -0.491559 -0.0216002 10532.5 10489.9 0.0812825 -81367.4 
188 3.75e-05 1.06867 -0.0346323 10513.6 10490.3 0.148551 -79335.1 
189 3.77e-05 0.894424 -0.00825985 10514.2 10492.2 -0.744402 -80482.3 
190 3.79e-05 0.413977 0.0207627 10574.5 10494.3 -0.797022 -79966 
191 3.81e-05 0.222955 -0.0240723 10533.1 10489.8 -0.131652 -80348.7 
192 3.83e-05 0.799027 -0.0371184 10491.6 10490.2 -4.29225 -80288.3 
193 3.85e-05 0.217798 0.0164149 10494.8 10490.3 -4.75767 -78306.8 
194 3.87e-05 0.564375 -0.0162684 10471.5 10486.6 -1.6863 -79122 
195 3.89e-05 0.896926 0.0122493 10514.5 10495.8 0.640494 -78030 
196 3.91e-05 0.0863542 0.00396514 10542.9 10492.7 0.509769 -79730.1 
197 3.93e-05 0.557568 -0.0167951 10532.4 10490.9 0.657118 -79809.1 
198 3.95e-05 0.088945 0.00957239 10527.2 10491.2 -3.74101 -81696.4 
199 3.97e-05 -0.25485 0.00876569 10554.1 10491 1.60109 -81051 
200 3.99e-05 0.167293 0.0254056 10571.9 10493.8 -1.37914 -79449.1 
