ITEM: TIMESTEP
100000
ITEM: NUMBER OF CELLS
200
ITEM: BOX BOUNDS pp ss pp
0 0.0001
0 4e-05
0 0.0001
ITEM: CELLS id yc f_vel[1] f_vel[2] f_mom[1] f_mom[2] f_mom[3] f_q[*] 
1 1e-07 0.0146401 0.16585 11536.4 11507.7 7.41803 -69911.6 
2 3e-07 0.06628 -0.167437 11533.6 11531.3 -1.82041 -71499.9 
3 5e-07 -0.407048 0.173118 11502.8 11536.4 12.5048 -75506.5 
4 7e-07 -0.422573 0.122693 11523.7 11532.4 -6.73306 -74298.3 
5 9e-07 -0.32021 -0.00152559 11555.7 11536.6 4.90113 -75552.7 
6 1.1e-06 -0.88611 -0.00524846 11521.6 11525.8 13.1111 -72065.2 
7 1.3e-06 0.0127478 0.0404004 11501.5 11521.3 3.87432 -77454.4 
8 1.5e-06 -0.580584 -0.0436429 11550.4 11536.6 -11.9903 -75381.3 
9 1.7e-06 -0.338978 0.078643 11550.9 11536.8 -0.19873 -79600.4 
10 1.9e-06 -0.424819 -0.0603788 11550.5 11555.6 3.73487 -72300.1 
11 2.1e-06 -0.509178 0.23968 11503.7 11540.5 -5.03204 -78179.2 
12 2.3e-06 -0.554907 -0.163976 11530.2 11517 7.06453 -77368.8 
13 2.5e-06 0.046402 -0.194179 11577 11525.3 5.64328 -74291.5 
14 2.7e-06 -0.884562 -0.0118822 11492.6 11532 7.35764 -79107.6 
15 2.9e-06 -0.199258 0.117076 11452.6 11539.1 6.79538 -79813.4 
16 3.1e-06 -1.35795 0.00560871 11462.7 11524.4 8.95317 -73365.1 
17 3.3e-06 -1.24104 0.0475149 11487.1 11529.2 -2.61646 -78802.9 
18 3.5e-06 -0.603077 0.281178 11544.5 11536.6 10.4058 -82403.3 
19 3.7e-06 -0.899631 0.0493377 11523.2 11534.2 -7.4596 -78560.9 
20 3.9e-06 -1.44966 0.138728 11510.9 11523.6 7.97617 -80706 
21 4.1e-06 -0.528296 0.116831 11498.9 11533.9 -5.43262 -79156.5 
22 4.3e-06 -0.44868 0.0951569 11527.2 11530.4 21.4471 -77216.6 
23 4.5e-06 -0.782403 0.123983 11476.9 11523.7 0.134212 -74847.1 
24 4.7e-06 -0.731516 0.158068 11438.8 11513 -2.50579 -77810.1 
25 4.9e-06 0.238123 -0.0730042 11555.7 11512.6 1.66926 -74659.9 
26 5.1e-06 -1.63593 -0.313461 11561.4 11529.7 1.67461 -77535 
27 5.3e-06 -1.04534 0.0747436 11609 11516.4 6.71551 -76655.7 
28 5.5e-06 0.212996 0.300797 11515.7 11536.6 2.0816 -80848 
29 5.7e-06 -0.810876 0.130609 11534.9 11517.5 8.48203 -72745.1 
30 5.9e-06 -0.199171 -0.00259916 11482.8 11516.2 3.60338 -74920.3 
31 6.1e-06 1.10341 0.0062051 11546.7 11529.4 5.6671 -77668.3 
32 6.3e-06 0.606733 0.0232975 11506.3 11527.6 13.4921 -78277.7 
33 6.5e-06 0.349416 -0.0582854 11582.2 11513.5 6.52296 -76093.7 
34 6.7e-06 0.718185 0.0381596 11570.8 11509.1 -3.39871 -80073.8 
35 6.9e-06 0.424182 -0.24708 11552.1 11523.1 -0.936774 -75697.5 
36 7.1e-06 0.652448 0.245131 11590.9 11520.5 -3.4139 -80022.4 
37 7.3e-06 1.06179 -0.0340866 11495.5 11523.7 7.57626 -78046.2 
38 7.5e-06 1.37756 0.0725367 11479.2 11528.3 2.6591 -74850.9 
39 7.7e-06 0.834781 0.0733905 11477.4 11518.9 -0.137167 -76587 
40 7.9e-06 -0.226394 -0.00296582 11450.6 11522.5 2.59377 -80231.4 
41 8.1e-06 0.494193 0.169814 11523.1 11528.6 3.61703 -82306.1 
42 8.3e-06 0.91428 0.422651 11586.3 11513.7 -0.069058 -81360.7 
43 8.5e-06 0.158158 -0.0964958 11652.5 11522 -0.852091 -77250.6 
44 8.7e-06 0.905234 0.143649 11621.5 11537.9 -4.29046 -80614.4 
45 8.9e-06 1.5459 -0.133889 11547.4 11525.9 10.4283 -74251.6 
46 9.1e-06 0.927336 0.0762469 11534.2 11525.9 5.34982 -80981.6 
47 9.3e-06 1.52888 0.0603547 11565.4 11530 0.115299 -80877.1 
48 9.5e-06 1.49335 0.0015581 11541.3 11521.4 -9.19674 -81905.1 
49 9.7e-06 1.73313 -0.0688515 11425 11530.2 5.09084 -78399.2 
50 9.9e-06 1.33472 -0.112196 11526.2 11516.9 -1.1729 -79225.5 
51 1.01e-05 1.01478 0.110126 11511.5 11524.7 -5.92753 -79283.2 
52 1.03e-05 1.75147 0.124676 11543.7 11522.4 11.5499 -79104.4 
53 1.05e-05 1.72016 0.0506652 11498.3 11535.3 -1.86938 -81885.5 
54 1.07e-05 0.964504 0.12114 11416.7 11522.6 -9.35907 -79921.5 
55 1.09e-05 1.33283 -0.148688 11487.7 11537.4 -3.94202 -77350 
56 1.11e-05 1.85121 0.0263328 11517.5 11527.6 21.9915 -83488.6 
57 1.13e-05 0.714532 0.067147 11518.2 11523.3 5.1547 -76764.1 
58 1.15e-05 0.528683 -0.0915374 11592.7 11534.3 -3.60933 -78136.7 
59 1.17e-05 -0.0298451 -0.072732 11541.4 11538.4 -3.68774 -78714.5 
60 1.19e-05 0.421737 0.124045 11551 11536.5 -2.41494 -78405.1 
61 1.21e-05 -0.76149 -0.228631 11524.8 11529.4 -0.250291 -76099.8 
62 1.23e-05 -0.971678 0.0461817 11512.6 11531.6 -1.36306 -78020.3 
63 1.25e-05 0.329612 0.129925 11507.9 11520.6 -6.73955 -83080.5 
64 1.27e-05 -0.277353 0.0957911 11531.8 11520.1 -13.0544 -76231.4 
65 1.29e-05 0.1338 -0.00234219 11541.8 11517.4 0.880227 -80050 
66 1.31e-05 -0.726736 0.13151 11568 11522.1 -2.14365 -80067.1 
67 1.33e-05 0.490895 0.00340838 11498.2 11527.5 -3.29896 -76942.2 
68 1.35e-05 -0.569137 0.166765 11486.7 11518.9 4.04004 -79924.6 
69 1.37e-05 -0.3826 0.110867 11470.2 11527 1.29918 -83557.2 
70 1.39e-05 -0.212706 -0.112941 11486.1 11528 0.583015 -74751.9 
71 1.41e-05 -0.277289 0.100368 11490.8 11527.9 -1.88298 -82048.5 
72 1.43e-05 -0.166641 0.126456 11481.3 11508 -3.04417 -76642.8 
73 1.45e-05 -0.661208 0.0417083 11491.5 11532.1 7.90053 -81460.7 
74 1.47e-05 -1.15381 0.0907657 11515.8 11522.6 8.64408 -82978.5 
75 1.49e-05 -1.97019 0.475922 11538.7 11526.9 -0.673211 -79079.5 
76 1.51e-05 0.960293 0.0723081 11518.7 11533.6 8.61215 -80646.1 
77 1.53e-05 -0.213718 0.086222 11426.7 11515.7 3.3857 -78773.8 
78 1.55e-05 -0.912468 -0.140929 11494.3 11541.3 2.64527 -76778.9 
79 1.57e-05 -0.857561 -0.00860281 11474.5 11526.2 8.28362 -76846.7 
80 1.59e-05 -0.297321 0.0166599 11509.1 11538.6 -4.18725 -72957.4 
81 1.61e-05 -0.686301 0.0122171 11538.5 11539.9 -10.014 -78902.5 
82 1.63e-05 -1.17061 0.0890235 11538 11529.1 -0.551985 -76050.4 
83 1.65e-05 -1.33821 -0.114141 11538.3 11522.4 -2.08896 -74940 
84 1.67e-05 -1.21812 0.172127 11497.7 11528.7 4.5227 -79316.3 
85 1.69e-05 -0.702231 -0.0432996 11477.3 11510 9.05513 -80732.5 
86 1.71e-05 -0.445558 -0.0147741 11529.3 11538.8 4.1441 -72886.1 
87 1.73e-05 -0.36377 0.0193662 11491 11519.5 -2.43602 -78427.6 
88 1.75e-05 -0.132471 -0.0757832 11553.5 11552.4 5.48204 -73741.2 
89 1.77e-05 -1.09228 0.050314 11497.5 11530.7 -4.79076 -78015 
90 1.79e-05 -0.417936 0.200339 11448.4 11518.1 0.27026 -81836.2 
91 1.81e-05 -1.08748 0.0200626 11482.1 11532.2 3.55032 -76923.2 
92 1.83e-05 -1.46159 0.0312064 11456.1 11534.6 -8.95326 -76452.3 
93 1.85e-05 -0.0960725 0.244594 11484.8 11534.7 5.66429 -83632 
94 1.87e-05 -1.38114 -0.0684372 11532.3 11536.4 -6.82111 -75794.7 
95 1.89e-05 0.86051 -0.074343 11506.7 11528 2.91498 -72901.8 
96 1.91e-05 -0.954118 -0.068826 11490 11530.8 6.54587 -77660.2 
97 1.93e-05 -0.331362 0.184324 11498.9 11537 -4.5756 -78930.5 
98 1.95e-05 0.0465321 0.16127 11487.7 11517 4.10953 -79977.1 
99 1.97e-05 -0.67076 0.033341 11495.8 11514.6 8.52393 -77910.2 
100 1.99e-05 -0.591152 0.133271 11464.8 11534.8 -3.5954 -79358.7 
101 2.01e-05 -1.02497 -0.0615174 11527.2 11539.3 5.32917 -77073.3 
102 2.03e-05 0.106081 0.12222 11474.3 11525.6 -2.42915 -77403.1 
103 2.05e-05 -0.497319 0.00363113 11546.3 11535.1 0.777686 -79539.2 
104 2.07e-05 -0.0149893 0.196973 11522 11524.6 9.70666 -75552.5 
105 2.09e-05 0.60319 0.0997148 11521 11538 -3.24697 -79743.6 
106 2.11e-05 0.280262 0.0848726 11474.3 11532.1 6.35829 -80472.5 
107 2.13e-05 -0.766568 0.105344 11476.1 11534.1 -2.89719 -76809.2 
108 2.15e-05 -1.64368 0.0547927 11497.5 11538 3.8931 -80041.1 
109 2.17e-05 -1.78946 0.0117196 11523.9 11521 6.47499 -75209.1 
110 2.19e-05 -0.999989 0.134116 11581.6 11535.3 6.58771 -79960 
111 2.21e-05 -0.278672 0.143537 11564 11533.3 -12.4268 -76404.9 
112 2.23e-05 -1.26918 0.036121 11528.1 11541.2 5.36069 -80670.9 
113 2.25e-05 -2.67645 -0.0349814 11512.3 11534.1 -1.14308 -81544.1 
114 2.27e-05 -2.13325 -0.0618797 11514.2 11543.4 11.2527 -79799 
115 2.29e-05 -1.31544 -0.059066 11493.5 11541.3 7.28336 -78377.9 
116 2.31e-05 -1.67245 0.106218 11531.6 11538.1 1.4079 -76546.5 
117 2.33e-05 -1.06878 -0.0539428 11512.8 11533.7 5.98326 -78214.2 
118 2.35e-05 -2.26782 0.197989 11554.6 11546.2 21.7416 -78008.4 
119 2.37e-05 -2.10366 0.218275 11573.6 11536.6 -2.18905 -83668.8 
120 2.39e-05 -2.71271 0.154477 11528.4 11539.2 -3.03824 -79588.8 
121 2.41e-05 -3.18622 0.205519 11523.5 11535.2 -3.53545 -79271.3 
122 2.43e-05 -1.77155 0.0180375 11542.1 11541.6 13.9699 -79581.9 
123 2.45e-05 -0.715894 0.0547656 11490.4 11535.6 -15.4171 -77173.4 
124 2.47e-05 -2.2625 0.171445 11504.3 11531.5 -15.436 -78015.8 
125 2.49e-05 -1.61807 0.00527793 11540.2 11543.3 -2.47871 -77542.3 
126 2.51e-05 -1.92789 0.164974 11590.7 11531.3 6.87263 -77034.2 
127 2.53e-05 -1.2357 0.231659 11549.7 11524.4 2.24968 -81723.4 
128 2.55e-05 0.3491 -0.039136 11520.8 11541.4 5.72188 -76619.8 
129 2.57e-05 -0.535343 -0.004506 11493.4 11526.2 -1.06743 -79417.6 
130 2.59e-05 -1.32761 0.220417 11509.7 11529.2 0.377821 -80770.2 
131 2.61e-05 -0.35404 0.0750271 11517.2 11530.6 -5.17987 -75196.3 
132 2.63e-05 -0.577126 -0.0493339 11486.2 11536.6 -1.28188 -78605.2 
133 2.65e-05 -1.88288 0.182137 11438.5 11529.1 -10.0366 -83025.8 
134 2.67e-05 -1.81193 0.311015 11478.2 11551.6 1.26301 -81294.2 
135 2.69e-05 -2.53581 -0.0490421 11482 11533.7 0.405849 -76674.5 
136 2.71e-05 -2.76792 0.122033 11471.4 11533.7 -3.71794 -81669.6 
137 2.73e-05 -3.15162 -0.029688 11464.3 11555.3 -5.89824 -79260.7 
138 2.75e-05 -2.94024 0.284218 11475.7 11525.1 -13.1666 -76892.2 
139 2.77e-05 -2.72785 0.0245877 11517.1 11550.5 -4.0887 -85125.5 
140 2.79e-05 -2.92322 0.212951 11491.8 11528 -7.29653 -78841.3 
141 2.81e-05 -2.1064 0.118412 11562.9 11539.4 1.16282 -78343.3 
142 2.83e-05 -2.86711 -0.0017658 11513.5 11545.6 8.27647 -86890.8 
143 2.85e-05 -3.79016 0.182332 11456 11539.2 1.64944 -78163.1 
144 2.87e-05 -3.99147 0.0727742 11565.4 11532.2 6.12415 -74988.2 
145 2.89e-05 -3.18943 0.0543254 11481.6 11533.2 3.96985 -79736.9 
146 2.91e-05 -3.8241 0.176156 11526.4 11542.1 -2.51982 -81602.5 
147 2.93e-05 -2.76756 0.112988 11538 11539.4 -8.78716 -78565.8 
148 2.95e-05 -2.83308 0.14243 11583 11538.8 3.46912 -78930.2 
149 2.97e-05 -3.0269 -0.112185 11523.9 11530.1 -1.26244 -76969.2 
150 2.99e-05 -3.49328 0.111459 11560.9 11543.6 -0.369972 -81394.8 
151 3.01e-05 -3.5393 0.135939 11571.4 11545.1 6.35233 -79036.6 
152 3.03e-05 -4.0403 -0.0207722 11530.4 11527.2 -6.15578 -77386.5 
153 3.05e-05 -4.18019 0.117791 11473.7 11542.4 2.29693 -80689.9 
154 3.07e-05 -4.86729 0.103408 11573.1 11532.1 2.70043 -82098.3 
155 3.09e-05 -4.14665 0.0675462 11534.8 11548.6 5.26837 -76970.6 
156 3.11e-05 -4.38661 0.15804 11568.3 11520.8 -1.56019 -81890.3 
157 3.13e-05 -4.96872 -0.0397384 11463.9 11538.6 6.33895 -78217.8 
158 3.15e-05 -3.83708 -0.0758524 11440.4 11528.6 -3.68105 -78211.5 
159 3.17e-05 -2.34947 0.210463 11492.9 11535.7 2.81708 -80838.5 
160 3.19e-05 -2.86048 0.0548393 11539.5 11547 -2.20656 -78181.3 
161 3.21e-05 -2.52372 0.232022 11544.9 11529.6 5.17483 -77718.8 
162 3.23e-05 -3.06969 0.0472779 11536.7 11539.2 0.19154 -76518.9 
163 3.25e-05 -3.03841 0.145412 11458.4 11553.3 -0.0645788 -74803.9 
164 3.27e-05 -3.45522 0.0190894 11516.7 11538.3 7.80023 -79424.1 
165 3.29e-05 -3.39606 -0.118597 11536.3 11530.4 2.7134 -77130.1 
166 3.31e-05 -3.38529 0.0818865 11551.4 11542.6 7.70129 -74686.5 
167 3.33e-05 -3.29808 -0.0701637 11541.4 11530.6 0.087186 -76920.3 
168 3.35e-05 -1.11417 0.0332994 11525.1 11546.1 1.79627 -79751.8 
169 3.37e-05 -2.29561 -0.0669426 11527.4 11545.8 -2.8208 -78696.9 
170 3.39e-05 -1.63543 0.0673663 11547.4 11532.9 6.20381 -78079.7 
171 3.41e-05 -1.43339 -0.0469837 11478.7 11529.8 9.44416 -77770.5 
172 3.43e-05 -1.81921 -0.045412 11545.4 11551.2 5.25307 -79675.2 
173 3.45e-05 -3.01308 0.0272129 11564.1 11524.8 3.65926 -79599.1 
174 3.47e-05 -2.11131 0.0393174 11534.6 11535.7 -2.59691 -78406.2 
175 3.49e-05 -1.174 -0.0487713 11554.9 11530.9 -0.279539 -82812 
176 3.51e-05 -1.72388 -0.0210135 11579.6 11532.8 -4.29916 -78196.3 
177 3.53e-05 -1.43446 -0.0501806 11555.6 11540.5 11.4592 -74343.9 
178 3.55e-05 -1.11223 -0.190391 11514.4 11535.1 7.99002 -73992 
179 3.57e-05 -1.98276 0.115784 11528.1 11553.5 -8.90312 -76394.8 
180 3.59e-05 -1.87789 -0.261888 11531 11539.1 6.66852 -76769.3 
181 3.61e-05 -2.74545 -0.172894 11524.8 11538 1.29573 -73160.1 
182 3.63e-05 -2.47673 0.0698669 11553.8 11544.9 -0.334867 -78071.8 
183 3.65e-05 -2.85071 0.0165418 11528.3 11548.8 5.30537 -76511.7 
184 3.67e-05 -2.48059 0.0849646 11526.5 11527 6.70275 -78963.8 
185 3.69e-05 -2.71218 -0.332328 11530.2 11535.6 15.8918 -73298.6 
186 3.71e-05 -1.79198 0.111472 11510.4 11532.1 -3.97588 -73777 
187 3.73e-05 -2.15364 0.104587 11563 11539.3 3.67086 -75586.8 
188 3.75e-05 -2.52585 -0.00879889 11532.2 11563.4 -5.42589 -76206.3 
189 3.77e-05 -1.86155 -0.0395881 11492.2 11532.3 10.1233 -74201.7 
190 3.79e-05 -2.40024 -0.025354 11547.8 11543 0.790568 -79289.5 
191 3.81e-05 -1.85491 0.0226064 11536.4 11533.4 7.72491 -78451.9 
192 3.83e-05 -2.65186 0.0474095 11558 11534.4 1.52852 -74850.1 
193 3.85e-05 -1.87035 0.0448462 11544.1 11554.2 7.13078 -78803.5 
194 3.87e-05 -2.26001 -0.113719 11562.1 11535.3 -1.89727 -72100.9 
195 3.89e-05 -1.40192 -0.283748 11581.6 11536 -4.85084 -77521.7 
196 3.91e-05 -1.98035 0.175669 11582.7 11549.9 -2.74988 -78051.4 
197 3.93e-05 -2.12952 -0.295815 11582.2 11542.5 8.6595 -78684.7 
198 3.95e-05 -0.854854 -0.0682381 11614 11543 0.891071 -73573.8 
199 3.97e-05 -0.750889 0.000594955 11596.7 11529.3 -2.8298 -75375 
200 3.99e-05 -1.12536 -0.21243 11661.6 11548 -1.77777 -82910.7 
