ITEM: TIMESTEP
10000
ITEM: NUMBER OF CELLS
200
ITEM: BOX BOUNDS pp ss pp
0 0.0001
0 4e-05
0 0.0001
ITEM: CELLS id yc f_vel[1] f_vel[2] f_mom[1] f_mom[2] f_mom[3] f_q[*] 
1 1e-07 0 0 0 0 0 0 
2 3e-07 0 0 0 0 0 0 
3 5e-07 0 0 0 0 0 0 
4 7e-07 0 0 0 0 0 0 
5 9e-07 0 0 0 0 0 0 
6 1.1e-06 0 0 0 0 0 0 
7 1.3e-06 0 0 0 0 0 0 
8 1.5e-06 0 0 0 0 0 0 
9 1.7e-06 0 0 0 0 0 0 
10 1.9e-06 0 0 0 0 0 0 
11 2.1e-06 0 0 0 0 0 0 
12 2.3e-06 0 0 0 0 0 0 
13 2.5e-06 0 0 0 0 0 0 
14 2.7e-06 0 0 0 0 0 0 
15 2.9e-06 0 0 0 0 0 0 
16 3.1e-06 0 0 0 0 0 0 
17 3.3e-06 0 0 0 0 0 0 
18 3.5e-06 0 0 0 0 0 0 
19 3.7e-06 0 0 0 0 0 0 
20 3.9e-06 0 0 0 0 0 0 
21 4.1e-06 0 0 0 0 0 0 
22 4.3e-06 0 0 0 0 0 0 
23 4.5e-06 0 0 0 0 0 0 
24 4.7e-06 0 0 0 0 0 0 
25 4.9e-06 0 0 0 0 0 0 
26 5.1e-06 0 0 0 0 0 0 
27 5.3e-06 0 0 0 0 0 0 
28 5.5e-06 0 0 0 0 0 0 
29 5.7e-06 0 0 0 0 0 0 
30 5.9e-06 0 0 0 0 0 0 
31 6.1e-06 0 0 0 0 0 0 
32 6.3e-06 0 0 0 0 0 0 
33 6.5e-06 0 0 0 0 0 0 
34 6.7e-06 0 0 0 0 0 0 
35 6.9e-06 0 0 0 0 0 0 
36 7.1e-06 0 0 0 0 0 0 
37 7.3e-06 0 0 0 0 0 0 
38 7.5e-06 0 0 0 0 0 0 
39 7.7e-06 0 0 0 0 0 0 
40 7.9e-06 0 0 0 0 0 0 
41 8.1e-06 0 0 0 0 0 0 
42 8.3e-06 0 0 0 0 0 0 
43 8.5e-06 0 0 0 0 0 0 
44 8.7e-06 0 0 0 0 0 0 
45 8.9e-06 0 0 0 0 0 0 
46 9.1e-06 0 0 0 0 0 0 
47 9.3e-06 0 0 0 0 0 0 
48 9.5e-06 0 0 0 0 0 0 
49 9.7e-06 0 0 0 0 0 0 
50 9.9e-06 0 0 0 0 0 0 
51 1.01e-05 0 0 0 0 0 0 
52 1.03e-05 0 0 0 0 0 0 
53 1.05e-05 0 0 0 0 0 0 
54 1.07e-05 0 0 0 0 0 0 
55 1.09e-05 0 0 0 0 0 0 
56 1.11e-05 0 0 0 0 0 0 
57 1.13e-05 0 0 0 0 0 0 
58 1.15e-05 0 0 0 0 0 0 
59 1.17e-05 0 0 0 0 0 0 
60 1.19e-05 0 0 0 0 0 0 
61 1.21e-05 0 0 0 0 0 0 
62 1.23e-05 0 0 0 0 0 0 
63 1.25e-05 0 0 0 0 0 0 
64 1.27e-05 0 0 0 0 0 0 
65 1.29e-05 0 0 0 0 0 0 
66 1.31e-05 0 0 0 0 0 0 
67 1.33e-05 0 0 0 0 0 0 
68 1.35e-05 0 0 0 0 0 0 
69 1.37e-05 0 0 0 0 0 0 
70 1.39e-05 0 0 0 0 0 0 
71 1.41e-05 0 0 0 0 0 0 
72 1.43e-05 0 0 0 0 0 0 
73 1.45e-05 0 0 0 0 0 0 
74 1.47e-05 0 0 0 0 0 0 
75 1.49e-05 0 0 0 0 0 0 
76 1.51e-05 0 0 0 0 0 0 
77 1.53e-05 0 0 0 0 0 0 
78 1.55e-05 0 0 0 0 0 0 
79 1.57e-05 0 0 0 0 0 0 
80 1.59e-05 0 0 0 0 0 0 
81 1.61e-05 0 0 0 0 0 0 
82 1.63e-05 0 0 0 0 0 0 
83 1.65e-05 0 0 0 0 0 0 
84 1.67e-05 0 0 0 0 0 0 
85 1.69e-05 0 0 0 0 0 0 
86 1.71e-05 0 0 0 0 0 0 
87 1.73e-05 0 0 0 0 0 0 
88 1.75e-05 0 0 0 0 0 0 
89 1.77e-05 0 0 0 0 0 0 
90 1.79e-05 0 0 0 0 0 0 
91 1.81e-05 0 0 0 0 0 0 
92 1.83e-05 0 0 0 0 0 0 
93 1.85e-05 0 0 0 0 0 0 
94 1.87e-05 0 0 0 0 0 0 
95 1.89e-05 0 0 0 0 0 0 
96 1.91e-05 0 0 0 0 0 0 
97 1.93e-05 0 0 0 0 0 0 
98 1.95e-05 0 0 0 0 0 0 
99 1.97e-05 0 0 0 0 0 0 
100 1.99e-05 0 0 0 0 0 0 
101 2.01e-05 0 0 0 0 0 0 
102 2.03e-05 0 0 0 0 0 0 
103 2.05e-05 0 0 0 0 0 0 
104 2.07e-05 0 0 0 0 0 0 
105 2.09e-05 0 0 0 0 0 0 
106 2.11e-05 0 0 0 0 0 0 
107 2.13e-05 0 0 0 0 0 0 
108 2.15e-05 0 0 0 0 0 0 
109 2.17e-05 0 0 0 0 0 0 
110 2.19e-05 0 0 0 0 0 0 
111 2.21e-05 0 0 0 0 0 0 
112 2.23e-05 0 0 0 0 0 0 
113 2.25e-05 0 0 0 0 0 0 
114 2.27e-05 0 0 0 0 0 0 
115 2.29e-05 0 0 0 0 0 0 
116 2.31e-05 0 0 0 0 0 0 
117 2.33e-05 0 0 0 0 0 0 
118 2.35e-05 0 0 0 0 0 0 
119 2.37e-05 0 0 0 0 0 0 
120 2.39e-05 0 0 0 0 0 0 
121 2.41e-05 0 0 0 0 0 0 
122 2.43e-05 0 0 0 0 0 0 
123 2.45e-05 0 0 0 0 0 0 
124 2.47e-05 0 0 0 0 0 0 
125 2.49e-05 0 0 0 0 0 0 
126 2.51e-05 0 0 0 0 0 0 
127 2.53e-05 0 0 0 0 0 0 
128 2.55e-05 0 0 0 0 0 0 
129 2.57e-05 0 0 0 0 0 0 
130 2.59e-05 0 0 0 0 0 0 
131 2.61e-05 0 0 0 0 0 0 
132 2.63e-05 0 0 0 0 0 0 
133 2.65e-05 0 0 0 0 0 0 
134 2.67e-05 0 0 0 0 0 0 
135 2.69e-05 0 0 0 0 0 0 
136 2.71e-05 0 0 0 0 0 0 
137 2.73e-05 0 0 0 0 0 0 
138 2.75e-05 0 0 0 0 0 0 
139 2.77e-05 0 0 0 0 0 0 
140 2.79e-05 0 0 0 0 0 0 
141 2.81e-05 0 0 0 0 0 0 
142 2.83e-05 0 0 0 0 0 0 
143 2.85e-05 0 0 0 0 0 0 
144 2.87e-05 0 0 0 0 0 0 
145 2.89e-05 0 0 0 0 0 0 
146 2.91e-05 0 0 0 0 0 0 
147 2.93e-05 0 0 0 0 0 0 
148 2.95e-05 0 0 0 0 0 0 
149 2.97e-05 0 0 0 0 0 0 
150 2.99e-05 0 0 0 0 0 0 
151 3.01e-05 0 0 0 0 0 0 
152 3.03e-05 0 0 0 0 0 0 
153 3.05e-05 0 0 0 0 0 0 
154 3.07e-05 0 0 0 0 0 0 
155 3.09e-05 0 0 0 0 0 0 
156 3.11e-05 0 0 0 0 0 0 
157 3.13e-05 0 0 0 0 0 0 
158 3.15e-05 0 0 0 0 0 0 
159 3.17e-05 0 0 0 0 0 0 
160 3.19e-05 0 0 0 0 0 0 
161 3.21e-05 0 0 0 0 0 0 
162 3.23e-05 0 0 0 0 0 0 
163 3.25e-05 0 0 0 0 0 0 
164 3.27e-05 0 0 0 0 0 0 
165 3.29e-05 0 0 0 0 0 0 
166 3.31e-05 0 0 0 0 0 0 
167 3.33e-05 0 0 0 0 0 0 
168 3.35e-05 0 0 0 0 0 0 
169 3.37e-05 0 0 0 0 0 0 
170 3.39e-05 0 0 0 0 0 0 
171 3.41e-05 0 0 0 0 0 0 
172 3.43e-05 0 0 0 0 0 0 
173 3.45e-05 0 0 0 0 0 0 
174 3.47e-05 0 0 0 0 0 0 
175 3.49e-05 0 0 0 0 0 0 
176 3.51e-05 0 0 0 0 0 0 
177 3.53e-05 0 0 0 0 0 0 
178 3.55e-05 0 0 0 0 0 0 
179 3.57e-05 0 0 0 0 0 0 
180 3.59e-05 0 0 0 0 0 0 
181 3.61e-05 0 0 0 0 0 0 
182 3.63e-05 0 0 0 0 0 0 
183 3.65e-05 0 0 0 0 0 0 
184 3.67e-05 0 0 0 0 0 0 
185 3.69e-05 0 0 0 0 0 0 
186 3.71e-05 0 0 0 0 0 0 
187 3.73e-05 0 0 0 0 0 0 
188 3.75e-05 0 0 0 0 0 0 
189 3.77e-05 0 0 0 0 0 0 
190 3.79e-05 0 0 0 0 0 0 
191 3.81e-05 0 0 0 0 0 0 
192 3.83e-05 0 0 0 0 0 0 
193 3.85e-05 0 0 0 0 0 0 
194 3.87e-05 0 0 0 0 0 0 
195 3.89e-05 0 0 0 0 0 0 
196 3.91e-05 0 0 0 0 0 0 
197 3.93e-05 0 0 0 0 0 0 
198 3.95e-05 0 0 0 0 0 0 
199 3.97e-05 0 0 0 0 0 0 
200 3.99e-05 0 0 0 0 0 0 
