ITEM: TIMESTEP
200000
ITEM: NUMBER OF CELLS
200
ITEM: BOX BOUNDS pp ss pp
0 0.0001
0 4e-05
0 0.0001
ITEM: CELLS id yc f_vel[1] f_vel[2] f_mom[1] f_mom[2] f_mom[3] f_q[*] 
1 1e-07 -0.716357 0.148379 10711.9 10716.8 -5.79004 -89256.5 
2 3e-07 -0.601245 -0.210541 10711.3 10694.2 7.52509 -85776.4 
3 5e-07 -0.449393 -0.171508 10720.5 10700.5 -6.68694 -89203.1 
4 7e-07 0.217717 -0.060452 10692.5 10679.4 2.67687 -87842.1 
5 9e-07 0.0253418 0.142164 10680 10691.1 10.021 -90372.6 
6 1.1e-06 -0.246657 0.191857 10686.6 10677.8 -3.09785 -89314.8 
7 1.3e-06 0.251947 -0.00744784 10672 10688.4 -8.31404 -87552.6 
8 1.5e-06 0.350252 0.0808797 10648.1 10688.4 5.33891 -89795.2 
9 1.7e-06 0.162721 -0.0708549 10680.5 10692.1 -1.87966 -86940.3 
10 1.9e-06 0.208378 -0.242586 10698.1 10685.6 -2.95707 -86174.8 
11 2.1e-06 0.458781 -0.234487 10631.2 10684.1 -0.291457 -84464.7 
12 2.3e-06 1.66169 -0.114121 10652.8 10682 12.807 -88525.6 
13 2.5e-06 1.46276 0.261566 10650.5 10685 0.0673407 -88829.4 
14 2.7e-06 1.96537 0.183832 10634.2 10682.5 5.22678 -92165.5 
15 2.9e-06 1.51751 0.169892 10679.9 10686.4 -2.40521 -88058.4 
16 3.1e-06 1.31836 0.0422502 10638 10683.4 6.49414 -89060.2 
17 3.3e-06 1.25137 0.122238 10674.7 10671 6.95594 -91155.7 
18 3.5e-06 1.23427 0.0252855 10686.4 10677.4 2.51976 -89318.9 
19 3.7e-06 0.535817 -0.00647126 10657.5 10684.2 -0.715178 -86066.9 
20 3.9e-06 0.938733 -0.0696654 10674.1 10683.9 -0.688815 -87870.8 
21 4.1e-06 0.878106 -0.0408388 10669.5 10672.3 -0.897589 -90028.6 
22 4.3e-06 1.20846 0.0325749 10623.6 10686 5.45296 -88304 
23 4.5e-06 1.36057 -0.0551521 10656.2 10683.8 3.27345 -91005.3 
24 4.7e-06 1.39201 -0.0132392 10646.4 10683.2 3.9282 -88681.2 
25 4.9e-06 1.43576 -0.0528286 10617.6 10671.2 -1.04132 -89809.8 
26 5.1e-06 1.06367 0.150904 10655.7 10677.4 4.9298 -89458.5 
27 5.3e-06 0.699592 0.0287604 10649.9 10680.4 6.56448 -87405.2 
28 5.5e-06 0.587226 -0.127334 10644.2 10669.8 2.28877 -86455.8 
29 5.7e-06 0.473724 -0.0932623 10596 10662.1 2.81017 -87199.9 
30 5.9e-06 0.472136 0.090903 10630.1 10675.6 -1.44832 -89904.7 
31 6.1e-06 0.785046 0.026994 10633.8 10664.1 5.18205 -87486 
32 6.3e-06 1.05348 -0.132525 10625.7 10674.5 4.55371 -87920.2 
33 6.5e-06 0.524503 0.105536 10642.4 10681.2 4.16843 -90341.8 
34 6.7e-06 0.619664 -0.055827 10666.4 10679.1 2.93585 -88809.8 
35 6.9e-06 0.304418 -0.0862665 10707.6 10671.6 6.64573 -88494.8 
36 7.1e-06 -0.28855 -0.00300727 10689.7 10675.9 -4.20771 -91422.5 
37 7.3e-06 -0.413431 0.0483811 10643.2 10666.3 -3.39606 -88559.1 
38 7.5e-06 -0.470385 0.136211 10665 10672.8 3.57814 -91977.6 
39 7.7e-06 -0.403228 0.0497811 10657.8 10666.9 5.34601 -87799.5 
40 7.9e-06 0.357426 0.0239676 10701.8 10669 -7.29243 -87864.5 
41 8.1e-06 0.0762294 0.0258024 10643.6 10666 5.43159 -89193.7 
42 8.3e-06 -0.0174624 0.122297 10658.4 10668.1 9.24655 -90277.6 
43 8.5e-06 -0.243657 -0.0426359 10633.4 10649.7 -7.54548 -88700.7 
44 8.7e-06 -0.461225 0.0665084 10674 10665.6 -3.1776 -90872.5 
45 8.9e-06 -0.336939 -0.0168291 10685.6 10671.1 -13.6034 -88182.1 
46 9.1e-06 -0.216417 -0.0958392 10663.5 10667 5.12155 -90453 
47 9.3e-06 -0.359949 -0.0135663 10698.2 10661.2 -2.75758 -87967.7 
48 9.5e-06 0.136125 0.0594747 10690.7 10674.1 2.83698 -88874 
49 9.7e-06 -0.658724 0.0494647 10668.5 10677.9 11.7297 -92452.2 
50 9.9e-06 0.130179 0.155888 10681 10682.8 3.83154 -91061.9 
51 1.01e-05 -0.516442 -0.199396 10664.1 10662.3 2.5986 -85853.2 
52 1.03e-05 -0.825255 -0.0997168 10648.7 10658.8 -6.1846 -89229.1 
53 1.05e-05 -0.568034 -0.00204192 10648.4 10671.6 -5.73482 -89904.2 
54 1.07e-05 -0.466191 -0.0777564 10663.3 10667.9 9.68148 -88379.2 
55 1.09e-05 -0.182873 0.101333 10657.1 10672.3 -8.10156 -88076.9 
56 1.11e-05 -0.292551 -0.163983 10655 10679.8 0.796386 -86858.4 
57 1.13e-05 -0.176492 -0.14692 10660.3 10655.3 5.6584 -86186 
58 1.15e-05 -0.217874 -0.0295465 10620.9 10669.9 -0.746619 -89124.9 
59 1.17e-05 0.0762386 -0.240537 10620.6 10676.4 1.25842 -89259.9 
60 1.19e-05 0.0312534 -0.118406 10629.3 10650.3 3.71161 -90449.4 
61 1.21e-05 0.44331 -0.0223447 10629.4 10659.2 1.74507 -88287.7 
62 1.23e-05 0.236842 -0.13796 10665.7 10668.3 10.5122 -84840.5 
63 1.25e-05 -0.680852 0.301104 10651.1 10653.4 4.91355 -93508.6 
64 1.27e-05 -0.290275 0.0119701 10698.2 10671.8 -7.58735 -86531.7 
65 1.29e-05 1.30914 -0.0917551 10634.8 10662 0.914673 -90211.2 
66 1.31e-05 0.65294 -0.122061 10622 10659.1 10.8649 -84791.4 
67 1.33e-05 0.785652 0.00321665 10637.9 10664.9 -4.85713 -88533.6 
68 1.35e-05 0.52109 0.019792 10658.5 10651.5 3.11968 -87994 
69 1.37e-05 -0.0361138 -0.127124 10625.2 10654.9 0.682873 -89020.8 
70 1.39e-05 0.135818 -0.166161 10617.5 10648.4 4.68333 -85787.9 
71 1.41e-05 -0.196658 -0.0579906 10643.4 10648.9 4.5354 -90578.4 
72 1.43e-05 -0.620032 -0.00903544 10647.1 10644.5 5.22009 -90071.7 
73 1.45e-05 -0.516402 0.0170438 10692.8 10666.1 -3.2479 -91344.3 
74 1.47e-05 -0.0162051 -0.177569 10656.9 10663.1 -0.0196469 -85192.9 
75 1.49e-05 -0.588832 0.0448341 10653.5 10658.4 -3.86314 -91398.3 
76 1.51e-05 -0.375157 0.234579 10646.8 10657.1 8.80038 -93703.2 
77 1.53e-05 -0.391065 0.112906 10685.6 10660 9.66194 -92013.8 
78 1.55e-05 -0.072299 -0.000351854 10641 10665.3 -4.81693 -89661.9 
79 1.57e-05 0.0830822 -0.0152471 10654.8 10666.2 -3.69125 -86913.3 
80 1.59e-05 -0.374087 -0.00351485 10660.4 10653.4 -3.11182 -89845.1 
81 1.61e-05 -0.443618 0.12797 10653.4 10657.8 -7.81157 -88770.3 
82 1.63e-05 0.0359505 0.121864 10659.1 10656.6 3.78645 -90531.8 
83 1.65e-05 0.00528293 -0.0411144 10651.8 10645.5 -3.50646 -89570.6 
84 1.67e-05 -0.453699 -0.206126 10675.4 10655.2 -1.07145 -88553.1 
85 1.69e-05 -0.438399 0.096113 10713.4 10649.9 -2.36403 -88446.2 
86 1.71e-05 -0.622447 -0.0841719 10688.4 10648.2 -2.64325 -88754.4 
87 1.73e-05 -0.747917 -0.00400426 10664.7 10653.4 -3.75272 -91143.2 
88 1.75e-05 -0.51347 0.0554992 10629.9 10647.7 -6.95021 -90543.8 
89 1.77e-05 -0.0933684 0.115019 10686.2 10657.1 0.351646 -92963.2 
90 1.79e-05 -0.405747 -0.131707 10657.5 10653.9 3.91716 -87463.5 
91 1.81e-05 -0.186834 -0.123238 10632.5 10645.4 -7.32149 -90224 
92 1.83e-05 -0.252817 0.0373797 10664.5 10647.3 7.23877 -90959.5 
93 1.85e-05 0.189526 -0.223944 10666.3 10645.2 1.82183 -87474.9 
94 1.87e-05 0.294093 0.191243 10670.4 10651.3 7.63941 -91802.1 
95 1.89e-05 -0.657455 -0.0654374 10661.8 10644.2 8.76943 -89521.3 
96 1.91e-05 -0.458031 0.0658985 10633.9 10647.3 -2.93473 -88316 
97 1.93e-05 -0.555604 -0.0225723 10700.8 10658.1 1.68244 -87896.4 
98 1.95e-05 0.0825209 0.0265332 10641.4 10647.4 -1.35821 -86749.3 
99 1.97e-05 -0.386251 -0.0917412 10661.6 10655.4 5.67288 -89643.8 
100 1.99e-05 -0.735665 -0.233905 10669.7 10653 -3.32653 -89494.5 
101 2.01e-05 -0.28607 -0.131088 10630.5 10644.2 -3.69784 -90198.2 
102 2.03e-05 -0.606209 -0.147959 10632 10652.2 13.2858 -88818.9 
103 2.05e-05 -0.436301 0.0871304 10619.6 10655.4 -7.09284 -90176 
104 2.07e-05 0.0169395 -0.134134 10655.4 10652.3 0.496311 -87889 
105 2.09e-05 -0.84015 0.0469107 10636.1 10653.8 4.84477 -88062.2 
106 2.11e-05 0.564687 0.0711866 10629.7 10653.4 8.2008 -88843.8 
107 2.13e-05 -0.473108 -0.116059 10637.9 10649.1 -3.50226 -86195.5 
108 2.15e-05 -0.606817 -0.164279 10620.3 10648.5 8.33052 -86699.4 
109 2.17e-05 -0.702343 0.0486321 10629 10645.3 0.0864734 -88247.7 
110 2.19e-05 0.0195443 -0.0150398 10604.4 10632.5 -0.767014 -87773.6 
111 2.21e-05 -0.431218 -0.0885916 10663.8 10657.6 0.725354 -87076.1 
112 2.23e-05 -0.251655 -0.13448 10674.5 10658.4 5.73573 -87263.8 
113 2.25e-05 -0.352321 0.0373257 10654 10641.3 2.45554 -89003.4 
114 2.27e-05 -0.464153 -0.23443 10652.6 10642.4 4.33257 -89411.8 
115 2.29e-05 -0.264944 0.0621279 10628.8 10651.7 2.43467 -91757.4 
116 2.31e-05 0.140091 -0.0987602 10653.9 10654.3 1.14647 -88129.4 
117 2.33e-05 -0.727796 -0.263651 10634.3 10647.7 4.45535 -84302.1 
118 2.35e-05 0.267437 -0.176974 10651.5 10643.6 6.1411 -88815.5 
119 2.37e-05 -0.682693 -0.176574 10702.7 10662 0.679845 -86255.3 
120 2.39e-05 -0.204742 -0.0614292 10661.6 10644.6 2.56574 -88769.7 
121 2.41e-05 0.390289 0.129833 10666.3 10652 -2.66661 -90484.7 
122 2.43e-05 0.0285442 -0.187596 10668.8 10655.4 1.6809 -87905.5 
123 2.45e-05 0.421322 -0.121366 10632.1 10633.1 2.75611 -87803.3 
124 2.47e-05 0.0905354 -0.141087 10630.9 10648.9 0.68763 -84987.5 
125 2.49e-05 0.223302 0.0933657 10622.4 10640.8 -1.2536 -89449.4 
126 2.51e-05 1.13803 -0.0245178 10607.3 10646.7 -5.12144 -89004.4 
127 2.53e-05 0.856741 -0.0330728 10599.7 10646.8 1.12542 -89370.9 
128 2.55e-05 1.02944 -0.13476 10645.3 10647.8 -1.35819 -89490.8 
129 2.57e-05 0.898799 -0.000748746 10628.2 10647.3 -5.53332 -88858.7 
130 2.59e-05 0.608369 -0.0134245 10644 10650.1 -3.10737 -89579.3 
131 2.61e-05 0.451397 -0.00580736 10600.4 10646.7 7.85009 -88193.8 
132 2.63e-05 0.44213 -0.190928 10629.6 10647.4 -3.79444 -87548.8 
133 2.65e-05 0.680729 0.0229541 10603 10633.6 3.59445 -90059.8 
134 2.67e-05 0.0831417 -0.429903 10656.3 10647.9 11.7846 -87161.9 
135 2.69e-05 0.226154 -0.177205 10630.8 10639.8 -0.379406 -87063.2 
136 2.71e-05 -0.271057 -0.0242821 10646 10638.8 5.15196 -89987.4 
137 2.73e-05 -0.57134 -0.14857 10684.6 10646.5 9.70557 -88406.6 
138 2.75e-05 -0.447034 -0.165373 10642.9 10644.3 0.243935 -88108.5 
139 2.77e-05 0.166657 -0.0624278 10637.5 10644.4 6.01239 -86380.3 
140 2.79e-05 0.189801 0.109429 10598.2 10638.9 18.2949 -89495.3 
141 2.81e-05 0.0630516 0.103242 10615.9 10645.3 -5.9244 -89691.4 
142 2.83e-05 -0.292281 -0.134392 10670.6 10652 -2.09396 -90846.7 
143 2.85e-05 0.164222 0.0785359 10664.9 10640.5 -5.0039 -90802.1 
144 2.87e-05 0.155528 0.0847783 10678 10645.5 4.15852 -90070.6 
145 2.89e-05 0.0380616 -0.142489 10672.1 10640.7 -4.14866 -88799.6 
146 2.91e-05 0.450611 0.0126557 10632.6 10640.6 6.07043 -88080.7 
147 2.93e-05 -0.0650633 0.128012 10658.5 10645.5 -1.10108 -89038.1 
148 2.95e-05 0.293481 0.00852283 10596.8 10633.8 1.89879 -91115.2 
149 2.97e-05 0.0777527 0.0598175 10670.5 10643.1 1.1427 -88308.6 
150 2.99e-05 -0.0914715 0.0957498 10660.7 10638.8 7.46546 -89001.8 
151 3.01e-05 0.386034 0.144057 10637.7 10634.5 -0.354327 -89055.3 
152 3.03e-05 0.183711 -0.12841 10620.8 10631.2 0.242996 -86493.3 
153 3.05e-05 -0.305643 0.261912 10655.7 10642.4 8.63971 -92574.9 
154 3.07e-05 0.450309 0.114997 10660.3 10642.5 -0.44874 -90908.6 
155 3.09e-05 0.397014 0.0414327 10625.4 10637.1 5.43562 -92543 
156 3.11e-05 0.779871 -0.0498292 10630.9 10645.1 -3.92281 -86736.2 
157 3.13e-05 1.69954 0.0689364 10636.2 10635.8 -3.06874 -90673.2 
158 3.15e-05 1.10409 0.1155 10643.5 10643.1 -3.93181 -89861.5 
159 3.17e-05 1.05899 -0.0720915 10584.6 10640.9 1.0683 -89696.9 
160 3.19e-05 0.691224 -0.0968815 10606.4 10634.8 0.806505 -89850.5 
161 3.21e-05 1.51028 -0.034167 10647.9 10635.2 -1.07026 -89470.1 
162 3.23e-05 0.294328 0.0450463 10614.9 10633.4 0.0120576 -90589.4 
163 3.25e-05 0.355753 0.0857885 10607.2 10626 -0.683756 -87156 
164 3.27e-05 0.408567 -0.0358838 10633.7 10637.7 0.358546 -89835.4 
165 3.29e-05 0.0852961 -0.01936 10623.3 10632.2 4.97216 -88303.6 
166 3.31e-05 -0.0112883 0.113102 10661.9 10646.8 -1.54903 -89313.6 
167 3.33e-05 -0.357497 -0.000687878 10686.8 10628.8 4.28903 -90461.9 
168 3.35e-05 0.456757 -0.0706896 10632.7 10640.7 2.12878 -87994.7 
169 3.37e-05 -0.311637 -0.146757 10642.4 10635.8 7.55736 -87414.1 
170 3.39e-05 -0.408624 -0.00329403 10632.9 10636.7 3.58911 -89402.9 
171 3.41e-05 -0.190721 -0.00571075 10658.1 10627.8 1.62337 -88308.6 
172 3.43e-05 0.239871 -0.00837651 10645.6 10638.5 6.64659 -88574 
173 3.45e-05 0.690262 -0.166906 10676.6 10634.8 1.42887 -89690.2 
174 3.47e-05 -0.504196 0.0133993 10681 10632.5 6.40139 -89002.1 
175 3.49e-05 -0.873288 0.188795 10623.7 10637.4 -1.93224 -91430.4 
176 3.51e-05 -0.223748 -0.00138451 10689.4 10637.8 -0.692373 -87319.4 
177 3.53e-05 0.503167 -0.0498391 10672.6 10626.9 3.49504 -89706.4 
178 3.55e-05 0.0910738 -0.113913 10675 10635.2 9.10708 -88452.8 
179 3.57e-05 -0.0428322 0.188496 10640.1 10632.7 -5.33583 -89982.4 
180 3.59e-05 0.099002 -0.197149 10609.9 10631.2 4.17599 -86358.5 
181 3.61e-05 -0.409333 -0.0132525 10630.9 10639 -4.90937 -91931.7 
182 3.63e-05 -0.222769 0.0668909 10627.4 10635.6 1.81874 -91395.3 
183 3.65e-05 -0.957066 0.0324147 10599.6 10626.8 6.96413 -88904.8 
184 3.67e-05 -0.534637 0.156173 10646 10640.1 1.0929 -91844.1 
185 3.69e-05 -0.77205 0.109407 10632.8 10632 4.72981 -92064.9 
186 3.71e-05 -0.780737 0.156075 10660.9 10635.7 5.49443 -92822.4 
187 3.73e-05 -0.524324 -0.130766 10658.4 10633.1 4.05279 -87359.1 
188 3.75e-05 -0.00591987 -0.174835 10642 10631.6 6.11196 -87654.2 
189 3.77e-05 -0.890218 0.169687 10626.7 10635.2 1.87881 -88191 
190 3.79e-05 -0.0707163 -0.0882318 10620 10635.1 0.560492 -88652.8 
191 3.81e-05 -0.0858978 0.0299423 10636.3 10635 -0.288796 -88173.2 
192 3.83e-05 -0.665618 0.12987 10656 10643.5 4.57273 -90645.9 
193 3.85e-05 -0.961415 0.114774 10673 10633.6 0.0868446 -88072.7 
194 3.87e-05 -0.846703 0.0721097 10660.7 10631.5 5.43932 -89972.4 
195 3.89e-05 0.0314171 0.00448596 10635.6 10634.8 -0.307902 -89078.9 
196 3.91e-05 -0.127392 -0.225225 10713.1 10634 -0.64158 -85070.1 
197 3.93e-05 -0.310921 0.0390385 10682.1 10636.5 3.44403 -87508.8 
198 3.95e-05 -0.32367 -0.0827118 10638.6 10640.2 3.89634 -82527.2 
199 3.97e-05 -0.351505 0.181504 10620.8 10617.7 2.92267 -86420.4 
200 3.99e-05 -0.547192 -0.508174 10680.8 10656.8 -2.97846 -78418 
