ITEM: TIMESTEP
100000
ITEM: NUMBER OF CELLS
200
ITEM: BOX BOUNDS pp ss pp
0 0.0001
0 4e-05
0 0.0001
ITEM: CELLS id yc f_vel[1] f_vel[2] f_mom[1] f_mom[2] f_mom[3] f_q[*] 
1 1e-07 0.397976 0.275352 12090.7 11983.9 14.079 -84060.7 
2 3e-07 -0.156927 -0.73836 11911.6 11936.7 -6.29438 -80419.2 
3 5e-07 0.375365 -0.258451 11988.1 11938.5 -0.0875448 -82652 
4 7e-07 0.633809 -0.467034 11954.2 11927.7 14.9438 -84592.7 
5 9e-07 0.935916 -0.146027 11894.9 11910.7 1.96998 -85195.7 
6 1.1e-06 0.720328 -0.0524342 11880.1 11928.5 -2.27075 -88643.2 
7 1.3e-06 -0.680338 0.203931 11888.2 11947.7 -17.4167 -87401.8 
8 1.5e-06 -0.258415 -0.125158 11842 11945.8 -16.0647 -86233.8 
9 1.7e-06 0.574696 -0.0204081 11875.4 11961.2 -1.08976 -85868.4 
10 1.9e-06 1.23697 -0.159384 11987 11926.4 19.5331 -89182 
11 2.1e-06 -0.50425 -0.412547 11847.9 11929.6 18.1053 -82185 
12 2.3e-06 -1.85035 -0.417891 11912.6 11948 1.28101 -78269.7 
13 2.5e-06 -2.16455 -0.0334723 11907.1 11929 -14.1021 -87364.3 
14 2.7e-06 -0.152797 -0.205761 11954.5 11939.6 -1.3236 -77377.8 
15 2.9e-06 -1.09944 -0.218296 11902.8 11908.8 10.6678 -85973.6 
16 3.1e-06 0.659525 0.0572271 11960.9 11926.5 5.84133 -87650.2 
17 3.3e-06 0.566515 0.120251 11929.1 11910 3.15241 -92638.2 
18 3.5e-06 0.177618 0.00191384 11973.2 11930.8 -0.996039 -85086.9 
19 3.7e-06 -1.23363 -0.111008 11892.9 11937.9 4.51835 -77723.2 
20 3.9e-06 0.257295 -0.460903 11945.1 11918.6 -12.3203 -78044.5 
21 4.1e-06 1.52877 -0.693544 11984.6 11920.8 6.00003 -79623.8 
22 4.3e-06 -0.161243 -0.204156 11963.1 11927.7 10.3009 -89754.7 
23 4.5e-06 0.118444 0.19685 11942.5 11936.5 2.49002 -90715.3 
24 4.7e-06 0.194975 -0.0828326 11950.2 11927.4 -4.91309 -85014.1 
25 4.9e-06 -0.10964 -0.091481 11896.8 11930.3 -2.97324 -90177.3 
26 5.1e-06 0.372816 0.0858829 11874.9 11944.5 -14.3099 -84098.8 
27 5.3e-06 0.967936 0.288892 11826.3 11909 17.0931 -87073.6 
28 5.5e-06 -0.292779 -0.516718 11875.5 11910.4 -2.51578 -81268.2 
29 5.7e-06 0.152905 -0.180804 11892.3 11922.1 -6.96874 -82623.4 
30 5.9e-06 -0.217595 -0.0857765 11909.2 11928.7 7.0691 -79579 
31 6.1e-06 -0.211678 -0.196523 11929.8 11939.3 20.2911 -81386.9 
32 6.3e-06 -0.271235 -0.172655 11907.6 11910.7 -14.9338 -83769.6 
33 6.5e-06 0.679668 -0.0299665 11932.7 11926.8 13.5428 -86089.2 
34 6.7e-06 -0.119446 -0.121785 11907.8 11912.4 12.5403 -88564.2 
35 6.9e-06 0.364774 -0.13515 11877.1 11925.3 1.91731 -88166.2 
36 7.1e-06 0.218163 0.0752896 11874.1 11932.7 -5.73568 -80398.1 
37 7.3e-06 -0.193527 -0.239591 11878.3 11926.1 -13.0641 -80384 
38 7.5e-06 -0.675479 -0.340099 11882.5 11903.4 10.3119 -80713.6 
39 7.7e-06 -0.225206 0.244005 11829.2 11921.5 13.7855 -90487.1 
40 7.9e-06 0.563134 0.12361 11915.9 11924.9 -9.89781 -83574.6 
41 8.1e-06 -0.668576 0.0236462 11861.8 11900.1 0.873546 -88068.3 
42 8.3e-06 -0.295444 -0.182422 11878 11938.3 3.31427 -88243.8 
43 8.5e-06 0.275362 -0.04959 11813.2 11908.4 -3.56072 -84408.3 
44 8.7e-06 -0.85056 -0.0616022 11851 11911.2 3.3161 -89687 
45 8.9e-06 0.18456 -0.141365 11886.9 11922.5 -2.12291 -89265.1 
46 9.1e-06 -1.2139 0.12847 11923.8 11907.6 -18.7343 -88142.6 
47 9.3e-06 -0.531762 -0.0457907 11932.2 11931.2 -7.46823 -85914 
48 9.5e-06 -0.0764222 -0.0590966 11863 11913.4 -11.8896 -87618.6 
49 9.7e-06 1.44121 -0.347855 11944.4 11924 15.3212 -85645.5 
50 9.9e-06 0.720957 0.0932718 11894.9 11929.1 -17.052 -94260.7 
51 1.01e-05 0.775008 0.0118088 11949.8 11919.3 -1.87624 -87403 
52 1.03e-05 2.51415 -0.208246 11953.5 11917.1 11.4042 -76277.5 
53 1.05e-05 1.62017 0.0409886 11914.3 11926.6 -19.3077 -87641.4 
54 1.07e-05 1.51565 -0.0862406 11927.5 11928.7 15.5215 -84724.2 
55 1.09e-05 1.86996 -0.381572 11895.3 11892.5 -1.48131 -80669.1 
56 1.11e-05 2.13292 0.115763 11931.3 11924.2 2.74888 -86353.6 
57 1.13e-05 1.92995 -0.385102 11945.7 11902.3 -11.0447 -78675.2 
58 1.15e-05 1.2893 -0.0612993 11938.5 11922.6 19.6392 -93090.4 
59 1.17e-05 0.741106 -0.0238087 11937.7 11923.2 -23.7085 -89380.2 
60 1.19e-05 0.703997 -0.305564 11990 11913.4 19.2734 -89855.5 
61 1.21e-05 2.32034 0.0600118 11950.2 11914.4 -3.64328 -83958.7 
62 1.23e-05 1.44608 -0.218505 11905.9 11938 -20.6911 -84224.8 
63 1.25e-05 1.11801 0.0877533 11946 11915.9 13.6775 -88174.9 
64 1.27e-05 1.25232 -0.317099 11945.2 11933.6 -11.5817 -83922.2 
65 1.29e-05 0.273005 -0.245411 11910.9 11910 -7.56403 -79386.3 
66 1.31e-05 0.77498 -0.0772479 11946.2 11927.3 1.76599 -88608.1 
67 1.33e-05 0.910227 -0.043558 11918.8 11912.6 -4.83505 -83409.9 
68 1.35e-05 1.43309 0.171618 11904 11922.4 -0.227523 -94167.6 
69 1.37e-05 -0.0586391 0.283613 11862.8 11900.2 -13.0792 -89122.8 
70 1.39e-05 -0.777991 -0.209894 11770.5 11909.3 11.4124 -83381.9 
71 1.41e-05 -0.560594 -0.151731 11819.8 11930.7 7.74055 -84138 
72 1.43e-05 -0.304056 -0.221337 11931.8 11908.4 -2.04367 -79049.9 
73 1.45e-05 1.40187 -0.0412387 11920.2 11922 -4.3588 -89179.2 
74 1.47e-05 -0.0565969 0.153805 11869.9 11908.9 -7.56842 -81271.5 
75 1.49e-05 -0.626891 -0.325077 11894.9 11936 -8.60429 -82195.8 
76 1.51e-05 -0.395273 0.0929654 11890.4 11898 -6.08296 -87213.7 
77 1.53e-05 -0.661255 0.011587 11975.1 11919.6 -6.85512 -88168.7 
78 1.55e-05 -0.754985 -0.1583 11859.9 11889.9 -19.0415 -84682.7 
79 1.57e-05 0.0451617 -0.134164 11912.3 11920.2 -21.1778 -83084.4 
80 1.59e-05 0.840031 -0.0302571 11871.7 11928.1 -11.9759 -83733.7 
81 1.61e-05 1.20624 0.0308916 11824.6 11903.6 15.0305 -90070.5 
82 1.63e-05 1.97655 -0.212239 11872.5 11912.8 -3.42401 -82007.8 
83 1.65e-05 1.10495 -0.139638 11931.5 11912.3 -1.46193 -85706.5 
84 1.67e-05 1.21995 -0.0610742 11826.3 11908.2 -18.7837 -82418 
85 1.69e-05 1.95026 -0.249241 11874.5 11931.3 1.69429 -79125.6 
86 1.71e-05 1.82027 -0.108602 11835 11898.1 8.13197 -83670.3 
87 1.73e-05 1.52448 -0.34137 11895.6 11915.3 -13.8685 -82395.6 
88 1.75e-05 0.490707 -0.0335655 11850.7 11894.6 -0.776411 -81218.7 
89 1.77e-05 1.37243 -0.360959 11994.2 11914.8 -9.92008 -84164.7 
90 1.79e-05 2.178 0.117549 11923 11906.5 -12.033 -86396.6 
91 1.81e-05 0.771871 -0.327708 12023.3 11912.1 5.44499 -89191 
92 1.83e-05 0.421345 -0.110946 11954.7 11908.8 1.05443 -86011.7 
93 1.85e-05 0.310988 -0.317924 11932.1 11920.4 -21.0611 -76822.2 
94 1.87e-05 1.34696 0.0914901 11990.5 11901.5 -6.12945 -84022.4 
95 1.89e-05 1.46706 -0.138607 11943.1 11929.8 -5.82599 -87174.2 
96 1.91e-05 0.946992 -0.294128 11947.2 11936.6 10.3081 -86916.6 
97 1.93e-05 2.37312 -0.0308271 11915.9 11921.3 0.107197 -86995.5 
98 1.95e-05 1.13481 -0.0877547 11820.3 11885.6 -20.8362 -86275.2 
99 1.97e-05 1.82121 0.23278 11910.9 11919.3 -1.80043 -93901 
100 1.99e-05 2.27847 0.147179 11829.1 11905.2 -5.20984 -85420.9 
101 2.01e-05 1.20626 -0.206408 11857.6 11906.3 -2.16485 -86846.2 
102 2.03e-05 1.66367 -0.268346 11851.3 11905.1 -11.6966 -87059.9 
103 2.05e-05 1.24599 0.215626 11916 11931 -4.60204 -88585.6 
104 2.07e-05 1.60789 -0.104079 11822.8 11911 13.816 -84345.4 
105 2.09e-05 1.78024 -0.248241 11963 11911.8 5.80782 -88328.5 
106 2.11e-05 2.18458 -0.224058 11928.8 11923.6 0.132932 -87307.9 
107 2.13e-05 0.056907 -0.0812818 11865.4 11890.5 -12.9523 -87124.9 
108 2.15e-05 -0.52302 -0.0774831 11805 11916.6 -16.9614 -84529 
109 2.17e-05 -0.698036 -0.286418 11890.2 11912.1 -5.42488 -81926.8 
110 2.19e-05 0.879863 -0.143452 11892.8 11904.5 -3.84997 -91066.6 
111 2.21e-05 0.344436 -0.151898 11856.7 11894.3 -1.49654 -83572.4 
112 2.23e-05 1.79999 -0.16212 11883.2 11910.1 -6.70254 -83001.9 
113 2.25e-05 1.66437 -0.200674 11881.3 11912.4 -0.000218226 -86470.9 
114 2.27e-05 1.48874 -0.384496 11965.9 11902.5 -5.5537 -83409.3 
115 2.29e-05 0.417716 -0.513774 11908.7 11919.2 -0.565989 -84031.1 
116 2.31e-05 0.1418 -0.219448 11884.6 11884.5 -2.57456 -86065.5 
117 2.33e-05 -0.541958 0.0201193 11907.8 11917 -27.7647 -86550.1 
118 2.35e-05 2.64465 -0.535502 11900.9 11903.3 -6.0622 -83361.7 
119 2.37e-05 1.48298 -0.10395 11927.2 11917.8 -13.2425 -83716.7 
120 2.39e-05 1.48874 -0.194195 11945.2 11899.3 -22.5818 -84661.4 
121 2.41e-05 0.40773 0.223435 11929.3 11892.1 -13.3131 -88685.7 
122 2.43e-05 1.41438 -0.277371 11868.5 11912.6 -20.9022 -86000.5 
123 2.45e-05 -0.593246 -0.310521 11898.9 11916.6 -4.13135 -80886.1 
124 2.47e-05 0.503337 -0.234506 11837.4 11886.4 -7.43765 -85566.7 
125 2.49e-05 1.7902 -0.0793378 11860.8 11915.4 -1.61785 -87995.5 
126 2.51e-05 0.674523 -0.415214 11893.8 11918.7 -14.9506 -86125.6 
127 2.53e-05 -0.080641 -0.0957497 11924.5 11913.9 -18.2623 -87115.7 
128 2.55e-05 1.65603 -0.337375 11924.5 11896.7 -1.01892 -79692.5 
129 2.57e-05 2.1735 -0.161594 11958.8 11891.7 -9.51196 -88269 
130 2.59e-05 1.40137 -0.206984 11939 11917 -11.7232 -78241.5 
131 2.61e-05 2.31595 -0.249325 11888.6 11903.7 -6.39757 -80020.2 
132 2.63e-05 0.373704 0.0210328 11891.8 11915.8 -6.9323 -82909.4 
133 2.65e-05 -0.252181 -0.329703 11912.9 11913.5 4.87447 -86784.2 
134 2.67e-05 -0.755352 -0.149457 11917.1 11911.9 6.44027 -82356.2 
135 2.69e-05 1.02705 -0.464028 11948.1 11887.6 -22.1381 -82373 
136 2.71e-05 0.535934 0.0195849 11858.6 11916.7 -18.074 -86702.2 
137 2.73e-05 0.796821 -0.200802 11916.5 11907.1 -13.8748 -86049.4 
138 2.75e-05 1.12179 -0.472074 12003.3 11920 -7.75683 -86375.7 
139 2.77e-05 1.00733 -0.100725 11883.6 11922.5 -7.33912 -85511.4 
140 2.79e-05 0.333404 -0.0761404 11862.4 11900.3 -13.7975 -87069.2 
141 2.81e-05 -0.0671783 0.0764598 11791 11910.2 -7.72267 -85474.8 
142 2.83e-05 0.0544366 0.0182719 11822.2 11890.2 -11.7675 -87056.4 
143 2.85e-05 -0.738112 -0.0026792 11860.3 11906.4 -4.32409 -87718.2 
144 2.87e-05 -0.840261 -0.107771 11995.6 11907.5 -6.46912 -89542.9 
145 2.89e-05 -0.404057 -0.0406847 11866.5 11900.7 1.46232 -90472.1 
146 2.91e-05 0.514852 -0.213707 11850.2 11919.1 -6.23183 -87141.9 
147 2.93e-05 0.86798 -0.307195 11875.6 11914 -0.156588 -83477.8 
148 2.95e-05 -0.236118 -0.241326 11916.3 11909.2 -13.6738 -81039.8 
149 2.97e-05 0.856273 0.107825 11773.7 11897.9 -11.0456 -90626.9 
150 2.99e-05 0.645109 -0.43207 11863.2 11917.6 -9.45528 -83319.9 
151 3.01e-05 -0.412416 -0.40526 11832.4 11895.2 -7.86623 -86373.2 
152 3.03e-05 0.120293 0.490214 11834.2 11911 -4.30126 -96615.8 
153 3.05e-05 0.158776 -0.206726 11786.9 11888.3 -14.2864 -86336.1 
154 3.07e-05 -0.76155 0.11707 11890.8 11911.6 3.32201 -88875.1 
155 3.09e-05 -1.429 -0.193883 11867.4 11914.4 5.60328 -84193.1 
156 3.11e-05 -0.267254 -0.34603 11916.3 11904.4 -3.23447 -79262.2 
157 3.13e-05 -2.00752 -0.0457074 11970.1 11928.3 -11.9816 -86110.9 
158 3.15e-05 -0.278829 -0.140674 11901.4 11897.4 -6.76878 -82911.8 
159 3.17e-05 -0.378915 -0.0307627 11835.7 11905.2 -6.03393 -92117.8 
160 3.19e-05 -0.844732 -0.0999195 11931.2 11891.3 -6.42945 -84808.8 
161 3.21e-05 -0.997662 -0.15914 11812.4 11907 -1.75425 -84748.6 
162 3.23e-05 -0.398736 -0.321211 11843.3 11908.8 -0.23236 -79235.9 
163 3.25e-05 -0.666706 -0.00235836 11827.3 11901.2 5.38973 -85160.9 
164 3.27e-05 -1.47572 -0.573369 11782.8 11906.4 -8.66479 -81324.7 
165 3.29e-05 -1.5598 -0.0700455 11896.1 11917.4 -5.7739 -86326.2 
166 3.31e-05 -2.04357 -0.192271 11906.2 11901.8 -0.416667 -89990.1 
167 3.33e-05 -0.0383561 -0.160419 11940.9 11929.2 9.10595 -86957.8 
168 3.35e-05 0.0772275 0.0269558 12029.7 11910.5 10.2687 -90121.3 
169 3.37e-05 -1.29307 0.23519 11884.9 11921.9 -5.81858 -87620.3 
170 3.39e-05 -1.43656 -0.0279952 11911.3 11915.4 8.13863 -87869.2 
171 3.41e-05 -1.22151 -0.217179 11910.2 11924.6 -3.25223 -86560.2 
172 3.43e-05 -1.69213 0.211871 11954.6 11899 -1.93723 -84182.2 
173 3.45e-05 -1.14499 -0.2616 11916.7 11909.9 -5.26101 -81210.1 
174 3.47e-05 -0.656783 0.39788 11911.6 11903.7 -14.4909 -90048.6 
175 3.49e-05 -1.42018 -0.281706 11870.4 11923.7 -2.28648 -87252.9 
176 3.51e-05 -3.34293 -0.232039 11862.5 11904.8 -7.6013 -84844.8 
177 3.53e-05 -2.74882 -0.0453347 11867.6 11886.9 8.31378 -87047.4 
178 3.55e-05 -1.51675 -0.0461563 11861.9 11904.4 8.70628 -81236.8 
179 3.57e-05 -0.759945 -0.0902772 11870.1 11894.2 -4.52249 -88378.6 
180 3.59e-05 -0.50983 0.0378835 11874.4 11909.9 -3.11037 -85279.1 
181 3.61e-05 -1.15222 0.0838766 11854.1 11903 4.96735 -86931.1 
182 3.63e-05 -1.03306 -0.0736825 11780.2 11907.1 6.02757 -88685.1 
183 3.65e-05 -2.83789 -0.0977419 11787 11916.2 0.658228 -88189 
184 3.67e-05 -2.11879 0.0971945 11791.9 11906.1 -1.61715 -88493.9 
185 3.69e-05 -1.4223 -0.167925 11888.3 11911.7 -1.28071 -83862.7 
186 3.71e-05 -2.06138 0.118119 11927.5 11919.1 7.13026 -84934.5 
187 3.73e-05 -2.71617 0.0188141 11890 11906.3 -2.7853 -83915.2 
188 3.75e-05 -1.59725 -0.310586 11938.3 11898.2 -9.49648 -86280.2 
189 3.77e-05 -1.33867 0.453788 11886.8 11907.1 -7.28651 -86154.6 
190 3.79e-05 -0.546307 -0.240022 11924.9 11897.6 -7.7316 -82905.4 
191 3.81e-05 0.0775171 0.169287 11986.4 11921 1.2524 -92584.6 
192 3.83e-05 -1.01781 -0.308268 11966.7 11900.3 -10.6483 -81739.2 
193 3.85e-05 -2.75698 0.240161 11936.1 11883.1 -2.63422 -91460 
194 3.87e-05 -2.9282 0.0904315 11940.3 11908.9 -10.7093 -89738.7 
195 3.89e-05 -2.60166 -0.0592525 12054.8 11923.2 -4.94161 -85264 
196 3.91e-05 -0.321978 0.109382 11925.3 11906.6 -5.30572 -86475.9 
197 3.93e-05 0.226232 0.0865169 12026 11892.1 -2.28263 -90760.9 
198 3.95e-05 0.246277 0.240398 12030.2 11910 -8.96413 -86300.6 
199 3.97e-05 -0.32371 0.295097 11913.9 11884.2 -6.47123 -86643.6 
200 3.99e-05 0.38394 -0.260246 11988.9 11932.6 -8.45233 -78881.1 
