ITEM: TIMESTEP
100000
ITEM: NUMBER OF CELLS
200
ITEM: BOX BOUNDS pp ss pp
0 0.0001
0 4e-05
0 0.0001
ITEM: CELLS id yc f_vel[1] f_vel[2] f_mom[1] f_mom[2] f_mom[3] f_q[*] 
1 1e-07 -0.40086 0.201278 10796.2 10731 0.580219 -83902.8 
2 3e-07 -0.318739 -0.0427777 10715 10695.7 12.9661 -88607.2 
3 5e-07 -0.872098 -0.00319563 10707.7 10716.4 13.5464 -94240.6 
4 7e-07 -0.693896 -0.19415 10763.7 10704 -13.0749 -89853.7 
5 9e-07 0.515337 0.1158 10717.6 10714.1 -1.46577 -91295.8 
6 1.1e-06 -0.395803 -0.231357 10691.7 10727.5 6.33252 -84068 
7 1.3e-06 0.780486 0.174134 10732.1 10695.1 -3.86172 -92987.2 
8 1.5e-06 1.50335 0.176856 10707.5 10702.5 -5.71514 -88856 
9 1.7e-06 1.23826 -0.141846 10659 10736.4 5.15997 -78465.1 
10 1.9e-06 1.97589 0.0334612 10713 10715.3 9.028 -86328.8 
11 2.1e-06 1.68627 -0.0768008 10681.5 10693.4 -5.68393 -87305.3 
12 2.3e-06 1.70852 -0.121315 10680.3 10703.8 9.09696 -87601.4 
13 2.5e-06 1.12345 0.0229629 10732.9 10728.2 5.42316 -89563.5 
14 2.7e-06 0.754366 0.107184 10726.3 10703.4 0.462186 -90797.2 
15 2.9e-06 1.63596 0.10005 10762.5 10719.4 -6.01058 -90457.8 
16 3.1e-06 1.8926 -0.0609452 10710.2 10693.8 -2.09931 -90016.5 
17 3.3e-06 1.96926 -0.0136612 10684.1 10708.4 -3.95902 -90853.4 
18 3.5e-06 2.29644 0.0262162 10700 10712.2 4.4323 -85897.4 
19 3.7e-06 1.84323 -0.0597828 10745.7 10721.7 -0.114296 -85930.9 
20 3.9e-06 0.540128 -0.0656085 10712.4 10717.5 -13.2998 -83595.5 
21 4.1e-06 1.80265 -0.108701 10683.9 10713.2 4.78969 -88064 
22 4.3e-06 1.74173 0.11387 10692 10710.9 1.98066 -88174.3 
23 4.5e-06 1.12419 0.412718 10718.9 10719 -2.59737 -93593.7 
24 4.7e-06 1.2598 0.00413593 10674.6 10713.1 6.38264 -86245.9 
25 4.9e-06 1.05446 0.0436449 10737.4 10731 -3.50844 -86501.5 
26 5.1e-06 0.216984 0.06276 10738.1 10705.9 4.18259 -88359.4 
27 5.3e-06 1.11069 0.161356 10697.7 10700.2 17.952 -88897.9 
28 5.5e-06 1.77196 0.105522 10716.1 10689.2 -8.68679 -87772.5 
29 5.7e-06 2.65774 -0.0542203 10717.6 10708.8 -0.970848 -86621.8 
30 5.9e-06 1.89444 -0.0456467 10716.3 10721.4 -1.79735 -93268.6 
31 6.1e-06 1.14426 -0.0678364 10678.6 10707 18.3585 -85876.7 
32 6.3e-06 1.62513 0.12096 10735.2 10716.2 -5.17591 -91695.3 
33 6.5e-06 1.48674 0.0512328 10700.7 10709.6 4.15861 -92160.8 
34 6.7e-06 1.11621 0.0827459 10704.1 10711.3 5.13302 -92867.4 
35 6.9e-06 1.22139 -0.0522433 10668.2 10713.4 8.22712 -87686.6 
36 7.1e-06 0.607107 0.14205 10704.3 10692.4 -2.86701 -88876 
37 7.3e-06 1.29752 0.0884799 10758.4 10710.8 3.3377 -88814.2 
38 7.5e-06 0.933325 0.106333 10741.3 10730.5 4.338 -92960.6 
39 7.7e-06 1.56429 0.222096 10729.2 10711.4 1.22494 -89599.3 
40 7.9e-06 1.73844 0.0110666 10730.3 10713.6 6.99828 -89571 
41 8.1e-06 1.04602 -0.0588242 10717.2 10713 -0.943047 -83831.1 
42 8.3e-06 0.878504 -0.0102327 10760.7 10711.3 7.62147 -90158.6 
43 8.5e-06 1.60948 0.176902 10692.3 10707.3 2.70662 -87599.5 
44 8.7e-06 1.45684 -0.0751803 10771.1 10709.1 -4.18192 -89571.4 
45 8.9e-06 1.35652 0.077329 10750.9 10706.2 11.8457 -94968.8 
46 9.1e-06 1.56399 -0.121625 10769.8 10700.5 4.23359 -87261.7 
47 9.3e-06 1.39728 0.237188 10774 10724.9 1.36434 -87638.8 
48 9.5e-06 1.39085 0.068526 10719.1 10705 -1.95267 -89487.3 
49 9.7e-06 2.28426 0.0553296 10712.7 10707.6 5.60554 -89109.8 
50 9.9e-06 2.58769 -0.170476 10745.2 10722.7 16.5742 -87982.1 
51 1.01e-05 2.26066 -0.0801684 10721.3 10721.2 7.0279 -86906.6 
52 1.03e-05 1.07059 0.0936121 10733.1 10711.8 14.0297 -89290.5 
53 1.05e-05 1.44789 0.0969766 10688 10715.4 1.81814 -88458.4 
54 1.07e-05 1.26239 0.141575 10758.6 10720.8 4.32603 -92258.8 
55 1.09e-05 1.5553 0.0644198 10737.4 10720.3 9.55955 -86791.8 
56 1.11e-05 2.20276 -0.0403567 10722.6 10711.2 -2.34508 -92908 
57 1.13e-05 2.02115 0.174396 10721 10717.7 20.7958 -89228.4 
58 1.15e-05 0.88172 -0.0109131 10730.6 10706.3 7.83239 -86136.7 
59 1.17e-05 0.735448 0.22718 10732.2 10717.5 3.59913 -86736 
60 1.19e-05 0.477012 -0.205126 10746.5 10711.8 19.0081 -87113.9 
61 1.21e-05 1.21339 0.205784 10698 10699.2 0.233523 -85673.1 
62 1.23e-05 0.949802 -0.0458457 10781.2 10702 -4.50469 -92558.4 
63 1.25e-05 0.21799 0.556239 10711.3 10720.2 4.12678 -87966.5 
64 1.27e-05 1.38293 0.205832 10765.2 10717.9 -2.65861 -92018.4 
65 1.29e-05 2.45445 -0.0400557 10690.2 10710.9 -4.42489 -91755.4 
66 1.31e-05 2.04497 -0.0333554 10674.4 10717.3 6.50916 -90302.8 
67 1.33e-05 2.04776 -0.0554556 10722.9 10711.2 0.273454 -87082.6 
68 1.35e-05 2.41098 0.123641 10729.4 10712.6 -6.19372 -93108.6 
69 1.37e-05 2.42943 0.0679549 10770.6 10721.2 -3.91772 -85631.4 
70 1.39e-05 2.0481 0.186196 10756.2 10719.1 0.491756 -94330.1 
71 1.41e-05 0.319437 0.0228783 10760.6 10727.6 8.44781 -88630.4 
72 1.43e-05 0.353247 0.0388165 10743.5 10712.1 7.31855 -87487.3 
73 1.45e-05 0.107304 0.292268 10774.9 10697.6 2.58273 -95510 
74 1.47e-05 -0.417283 0.172589 10740.2 10709.7 -7.80552 -90874.3 
75 1.49e-05 0.230473 0.113265 10703.2 10689.4 7.74883 -89608.9 
76 1.51e-05 -0.121208 0.0344531 10739.3 10707.7 6.72839 -87199.5 
77 1.53e-05 1.04327 -0.0218014 10764.3 10722.4 6.73811 -91634.6 
78 1.55e-05 1.1163 -0.0343335 10774.4 10722.5 -3.74254 -85998.9 
79 1.57e-05 0.414028 -0.0757477 10769.3 10714.4 -3.07856 -91956.5 
80 1.59e-05 1.29028 0.0928258 10698 10698.4 3.68871 -87649 
81 1.61e-05 0.893786 -0.170314 10714.6 10727.6 5.55199 -89736.4 
82 1.63e-05 1.30404 -0.0817138 10686.2 10694.5 -2.66368 -83498 
83 1.65e-05 1.6021 0.129505 10727.6 10724.2 -2.73139 -92695.6 
84 1.67e-05 2.85591 -0.070535 10721.7 10721.2 1.95386 -92970 
85 1.69e-05 3.16405 0.157513 10724.5 10722.3 -4.59458 -88163.9 
86 1.71e-05 2.49266 0.24186 10711.7 10723.5 9.32327 -89443.2 
87 1.73e-05 1.21195 0.0659797 10681 10711.6 -8.05842 -94451.5 
88 1.75e-05 0.508075 0.358575 10688.4 10714.8 3.87172 -88788.8 
89 1.77e-05 0.805882 -0.0956326 10605.8 10714.9 -0.430271 -89114.1 
90 1.79e-05 1.29747 0.0959437 10699.6 10707.7 1.81389 -91172.3 
91 1.81e-05 1.43487 0.0529579 10663 10716.8 -1.11215 -89837.3 
92 1.83e-05 0.349121 -0.0427547 10660.7 10704.4 -13.7573 -90954.4 
93 1.85e-05 0.2874 0.0759435 10631.7 10720.6 7.78428 -92230.5 
94 1.87e-05 1.29823 0.112843 10684.5 10710.2 -10.533 -92658 
95 1.89e-05 1.07318 -0.154914 10654.1 10711.4 9.28371 -87045.8 
96 1.91e-05 -0.852668 -0.0061193 10695.9 10708.9 -0.446801 -92986.3 
97 1.93e-05 -1.33927 -0.0733652 10657.6 10718.9 7.05275 -91994.1 
98 1.95e-05 0.130026 0.148715 10753.3 10716.3 -4.8066 -92049.7 
99 1.97e-05 -0.205915 0.0618073 10787.4 10722.4 -5.65234 -92017.5 
100 1.99e-05 -0.395982 0.0736882 10688.9 10714 7.25525 -93436.5 
101 2.01e-05 0.8723 -0.0463891 10755.1 10709.2 -1.57391 -89179.5 
102 2.03e-05 1.32597 -0.0535113 10662.2 10711.2 -10.9195 -91547.4 
103 2.05e-05 1.66173 0.204365 10702.7 10708.6 1.84798 -90069.3 
104 2.07e-05 0.0803981 0.128073 10682.2 10718.8 3.23458 -94936.3 
105 2.09e-05 1.21088 -0.0222596 10676.3 10725.1 6.89418 -88798.3 
106 2.11e-05 0.645442 0.0972697 10636.4 10724.5 -3.7235 -88431.3 
107 2.13e-05 0.515456 0.242226 10647.2 10707.9 -4.45884 -90573.3 
108 2.15e-05 -0.435126 0.0347363 10702.8 10709.4 11.0363 -91659.2 
109 2.17e-05 0.969584 0.127467 10647.3 10714.4 -3.8922 -91374.3 
110 2.19e-05 0.204723 -0.0948028 10738.5 10713.7 2.30209 -88169 
111 2.21e-05 0.678055 0.215796 10733.1 10726.3 -6.82881 -90066.5 
112 2.23e-05 -0.191194 0.119284 10707.6 10707.2 -1.44026 -85738.2 
113 2.25e-05 0.345298 0.055025 10757.4 10707.7 -6.40935 -94191.2 
114 2.27e-05 0.857634 0.0818358 10738.7 10711.7 8.53439 -91557.3 
115 2.29e-05 0.614606 0.11834 10721.2 10707.4 2.84853 -93709.7 
116 2.31e-05 0.54834 0.0632541 10627.8 10728.6 -3.92232 -90966.9 
117 2.33e-05 1.21752 -0.126287 10643.1 10702.8 3.82877 -88591.4 
118 2.35e-05 2.09498 0.318788 10635.9 10714.6 0.982309 -94472 
119 2.37e-05 0.556413 0.236011 10720 10705.5 -3.27297 -90526.4 
120 2.39e-05 -0.124004 -0.13579 10693.5 10706.1 -3.76176 -92303 
121 2.41e-05 -0.295022 0.000349858 10700.4 10694.1 7.57124 -91008.3 
122 2.43e-05 -0.456199 0.125741 10674.9 10723.8 -5.50407 -90281.8 
123 2.45e-05 -0.0748174 -0.0650226 10712.3 10703.4 4.91599 -93440.2 
124 2.47e-05 -0.0518623 0.176144 10706.2 10711.6 -8.4196 -93154.4 
125 2.49e-05 0.0821481 0.327229 10735.5 10704.9 2.43951 -93557 
126 2.51e-05 1.09516 0.391378 10712 10724.2 -0.660102 -95527.6 
127 2.53e-05 0.332929 0.0733801 10733.6 10701.3 -3.21794 -91049.4 
128 2.55e-05 -0.405218 0.151173 10655.9 10708.8 3.26197 -91209.5 
129 2.57e-05 -1.25009 0.171929 10771.6 10714.4 -7.90513 -90135.3 
130 2.59e-05 -0.657727 0.11758 10718.5 10700.3 0.625912 -97525.8 
131 2.61e-05 -0.696487 0.0953429 10678.9 10702.8 -3.65958 -91419.2 
132 2.63e-05 -1.07012 0.214543 10735.9 10712.6 -2.63078 -89322.4 
133 2.65e-05 0.0912117 -0.160424 10674.5 10710.6 -2.47394 -90722.8 
134 2.67e-05 -0.894954 0.0959331 10660 10706.1 -3.29992 -92676 
135 2.69e-05 -0.405591 0.125023 10682.1 10699.1 -5.53629 -91783.1 
136 2.71e-05 -0.00656942 0.511896 10676.3 10717.9 -11.0433 -90956.9 
137 2.73e-05 0.432742 0.0525566 10640.6 10701.2 1.59424 -90355.3 
138 2.75e-05 0.0898423 0.0629763 10685.2 10714.8 -0.768395 -92430.3 
139 2.77e-05 -0.663334 0.233008 10751.6 10706.4 -0.716777 -91183.3 
140 2.79e-05 -1.33786 -0.03506 10756.9 10712 -8.19209 -90171.4 
141 2.81e-05 -1.97078 -0.0245163 10737.3 10718.3 -10.8323 -90782.5 
142 2.83e-05 -0.521947 0.213954 10690.9 10709.1 1.77834 -93255.3 
143 2.85e-05 0.404381 0.0731048 10668.4 10709.1 3.5739 -89402.5 
144 2.87e-05 -0.155011 0.102264 10677.4 10710.8 2.1239 -94310.2 
145 2.89e-05 0.185601 -0.0478633 10715.6 10711.5 -0.802636 -89470.5 
146 2.91e-05 -1.08041 0.0470064 10746.3 10707 -2.35432 -89854.2 
147 2.93e-05 0.149741 0.0059224 10700.1 10714.5 -3.46094 -91995.4 
148 2.95e-05 -0.583474 0.224609 10728.2 10707.3 0.964021 -95226.4 
149 2.97e-05 -0.701599 -0.0270098 10763.2 10710.8 2.7808 -88808.5 
150 2.99e-05 -0.8892 0.151718 10756.8 10720.6 3.7285 -92820 
151 3.01e-05 -1.106 0.0406894 10745.5 10699.9 -5.05302 -87559 
152 3.03e-05 -0.384212 0.186475 10691.4 10715 2.35523 -92029 
153 3.05e-05 -0.411176 -0.0309447 10687.8 10695.2 -2.67881 -85084.3 
154 3.07e-05 -0.908947 0.247837 10681.4 10712.6 2.01121 -90272.3 
155 3.09e-05 -1.02807 0.048763 10695.2 10715.1 -0.627814 -89664.8 
156 3.11e-05 0.209708 0.0860545 10698 10713.4 11.3239 -88977.1 
157 3.13e-05 -0.289302 0.0352079 10696.7 10706.5 -9.04314 -89989.9 
158 3.15e-05 -0.656301 0.139135 10695.8 10707.2 8.07024 -88476.3 
159 3.17e-05 -0.785442 0.0342151 10701.7 10702.1 2.29969 -90816.6 
160 3.19e-05 -0.292009 -0.0490406 10690.5 10715.2 9.11095 -89664.1 
161 3.21e-05 -0.137282 0.048527 10711.2 10714.4 -3.1027 -92852.8 
162 3.23e-05 -0.302769 -0.0514495 10754.9 10715.6 6.22724 -93902.1 
163 3.25e-05 0.0474412 0.210322 10723.6 10715.6 5.18853 -91296.3 
164 3.27e-05 -0.812075 -0.161468 10753.9 10715.8 -1.15075 -92048.6 
165 3.29e-05 0.0174827 0.205788 10744.3 10711.5 9.02117 -93304.3 
166 3.31e-05 0.617724 0.104304 10668.9 10714.7 8.05732 -93878.9 
167 3.33e-05 -0.701207 0.0723208 10729.5 10710.8 3.56773 -90703.6 
168 3.35e-05 0.249593 -0.0021782 10720.3 10703 9.934 -90881.3 
169 3.37e-05 -0.0010024 -0.243207 10711.5 10722.4 7.79881 -87382.7 
170 3.39e-05 0.0360305 0.121793 10717.2 10707.2 0.0886807 -92881.4 
171 3.41e-05 -0.384974 0.0403535 10738.3 10712.7 7.47926 -87059.4 
172 3.43e-05 -1.56831 0.0394694 10742.2 10714 -0.456634 -90210.2 
173 3.45e-05 0.382929 0.0205202 10711.4 10696.2 0.403917 -91031.5 
174 3.47e-05 -0.682593 0.189969 10691.4 10705.6 5.2502 -91608.6 
175 3.49e-05 -0.676109 -0.108308 10720.8 10725.7 -3.07126 -86636.2 
176 3.51e-05 -0.493603 -0.12527 10747.2 10709.7 5.1605 -88583.4 
177 3.53e-05 0.0464778 0.194309 10762.6 10723.1 0.516997 -87296.2 
178 3.55e-05 -0.674359 -0.0450629 10769.5 10696 -1.74382 -89405.2 
179 3.57e-05 -0.861497 -0.0158657 10739.3 10722.4 7.89021 -94242.7 
180 3.59e-05 -1.07934 0.114 10701 10704.8 -1.50599 -91629.8 
181 3.61e-05 -0.847017 -0.0444155 10654.8 10717 -0.221391 -90550.6 
182 3.63e-05 -1.11109 -0.0583027 10687.5 10697.1 -4.23284 -86876.5 
183 3.65e-05 1.16849 -0.135145 10677.3 10725.9 8.73975 -85970.6 
184 3.67e-05 1.27162 -0.0083099 10714.7 10713 -3.67525 -93464.4 
185 3.69e-05 1.20658 -0.0206909 10728.7 10713.2 3.61385 -87447.9 
186 3.71e-05 0.116602 0.209776 10750.4 10719 -6.67654 -92302 
187 3.73e-05 0.4651 0.0345907 10683.9 10706.8 8.88987 -91056.2 
188 3.75e-05 0.320835 0.165189 10667.3 10711.4 7.07265 -92750.5 
189 3.77e-05 0.611422 0.0735997 10660.9 10702.8 7.37298 -88927.4 
190 3.79e-05 0.037468 -0.108067 10690.5 10712.5 9.93195 -92083.5 
191 3.81e-05 -0.0655333 0.0555618 10684.8 10714.4 1.79156 -91904.2 
192 3.83e-05 1.78516 0.142715 10671.3 10710.6 -0.235869 -89667.2 
193 3.85e-05 1.28793 0.00825778 10684 10697.3 6.75062 -90939.2 
194 3.87e-05 0.927831 -0.0341851 10697.4 10721.3 10.1833 -92504.6 
195 3.89e-05 0.761496 0.149553 10772 10717.3 6.58813 -92264.1 
196 3.91e-05 0.637904 -0.0877524 10754 10716.1 8.68618 -92762.7 
197 3.93e-05 1.05104 0.0743892 10749.2 10714.1 -5.1554 -89128.8 
198 3.95e-05 -0.154185 -0.0412409 10780.8 10719.4 10.6452 -90877.3 
199 3.97e-05 -0.685414 0.0499839 10775.3 10705.7 -0.122678 -85636.8 
200 3.99e-05 -0.102708 -0.0845696 10783.5 10713.6 3.04841 -94408.7 
