ITEM: TIMESTEP
11000
ITEM: NUMBER OF CELLS
200
ITEM: BOX BOUNDS pp ss pp
0 0.0001
0 4e-05
0 0.0001
ITEM: CELLS id yc f_vel[1] f_vel[2] f_mom[1] f_mom[2] f_mom[3] f_q[*] 
1 1e-07 0.271344 -0.0817954 10594.5 10379.2 -92.7362 -29059.3 
2 3e-07 -4.28313 -0.93645 10522.1 10321.1 -113.957 -49058 
3 5e-07 2.49313 1.14403 10206.7 10252.3 67.4882 -74895.7 
4 7e-07 1.43172 -1.28797 10206 10247.9 -65.028 -53050.9 
5 9e-07 0.136371 -1.14164 10252.7 10386 -38.4359 -59595.6 
6 1.1e-06 0.998496 0.425404 10268.5 10517.1 -97.1286 -79545.3 
7 1.3e-06 -3.80887 2.58515 10573 10294.4 -36.0507 -88631.2 
8 1.5e-06 -5.52678 1.25635 10733.7 10324.8 -132.434 -93862.8 
9 1.7e-06 4.09953 -1.79591 10323.3 10477.5 -30.75 -36887.5 
10 1.9e-06 4.18872 -0.442069 10546.8 10386.7 -43.9468 -76039 
11 2.1e-06 2.4144 1.2063 10626.2 10419.7 -60.7559 -106150 
12 2.3e-06 6.84064 -0.276992 10406.8 10429.2 -19.3077 -34639 
13 2.5e-06 5.15914 0.866801 10473.8 10289.2 -83.6271 -81158.4 
14 2.7e-06 2.92412 -0.0227051 10635.7 10385.6 79.3359 -59561.9 
15 2.9e-06 0.734887 -1.81244 10285.4 10379.4 -93.6322 -30330 
16 3.1e-06 2.8312 -0.437977 10675.1 10361.8 21.6833 -52454 
17 3.3e-06 4.69308 -0.0287826 10690.4 10349.5 -14.7631 -75544.1 
18 3.5e-06 3.07635 -1.08136 10664.9 10340.4 -138.239 -30009.5 
19 3.7e-06 0.898035 0.225307 10416.7 10475.2 -72.1897 -75712.3 
20 3.9e-06 -0.0419164 -0.362439 10125.6 10367 -55.3832 -40758.6 
21 4.1e-06 4.32519 -0.713649 10675.8 10342.5 -174.417 -67831.4 
22 4.3e-06 8.47779 -0.835196 10315.3 10311.3 -22.1432 -32340.6 
23 4.5e-06 9.48485 -0.66398 10833.8 10398.5 -31.1727 -69333.1 
24 4.7e-06 -0.802016 -0.492583 10160.5 10411.9 -60.8103 -69532.8 
25 4.9e-06 -2.86982 -1.41487 9860.99 10260.8 -110.868 -34375.7 
26 5.1e-06 -3.36 -2.78219 10322.2 10226.5 -69.6949 -53389.3 
27 5.3e-06 4.31049 -3.34166 10436.9 10307.2 -74.8223 -66789.4 
28 5.5e-06 -6.81978 -1.63508 10510.2 10368 -94.2861 -83953.6 
29 5.7e-06 -0.309487 -2.99819 9893.36 10211.3 -21.6395 -65922.9 
30 5.9e-06 1.13109 -4.07162 9856.11 10324.7 -55.0156 -51105 
31 6.1e-06 -3.58993 -3.17916 9967.57 10324.2 -1.9985 -44638.8 
32 6.3e-06 -5.74236 -1.48816 10059.8 10282.7 -16.4366 -69167.2 
33 6.5e-06 -2.93423 -0.555587 10586.1 10472.7 69.6271 -103696 
34 6.7e-06 2.78037 -0.155609 10217.8 10380.5 -45.1166 -89628.2 
35 6.9e-06 -3.6343 -1.59043 10319.6 10443.9 59.6231 -67703.4 
36 7.1e-06 3.03715 -0.509666 10318.2 10330.3 111.467 -85356.9 
37 7.3e-06 -4.87274 0.0776205 10479.8 10473.4 -48.8278 -82896.4 
38 7.5e-06 -0.399206 0.598553 10240.8 10344.6 43.1724 -99013 
39 7.7e-06 8.70093 -2.28 9946.44 10255.2 71.1742 -60042.4 
40 7.9e-06 -4.82915 -1.56913 10341.1 10445.5 45.2926 -61885.4 
41 8.1e-06 -2.03001 -2.4893 10355.5 10363.2 -32.0806 -84742.6 
42 8.3e-06 3.72428 -3.72921 10583.2 10293.6 -8.24936 -59615.7 
43 8.5e-06 4.35474 -3.42435 10207.9 10327.5 -8.96095 -84627.2 
44 8.7e-06 3.14645 -2.05703 10306.5 10364.1 -38.994 -105459 
45 8.9e-06 5.55587 -1.45759 10238.2 10361.7 23.5226 -88368.7 
46 9.1e-06 -2.40414 -1.14854 10605.3 10334.9 6.75718 -87229.7 
47 9.3e-06 -0.0249347 -0.861341 10820.5 10447.3 127.733 -86699.1 
48 9.5e-06 -4.75848 -2.26721 10469.3 10407 24.1215 -105281 
49 9.7e-06 -6.91627 -0.18739 10536.3 10354.1 43.0388 -115649 
50 9.9e-06 -8.84042 0.863001 10026.7 10311.7 -76.565 -105200 
51 1.01e-05 -7.56995 0.820795 10508.2 10374.6 -98.1033 -124978 
52 1.03e-05 -2.7253 0.895472 10118.5 10315.8 -4.54588 -148909 
53 1.05e-05 -3.74491 2.18139 10412.7 10323.3 18.6454 -129289 
54 1.07e-05 -3.4214 -0.919744 10341.9 10386.5 20.7722 -93129.2 
55 1.09e-05 -11.8063 2.47947 10340.9 10274.4 91.7386 -96319.1 
56 1.11e-05 -8.85913 -1.29184 10423.9 10364.2 150.617 -97293.7 
57 1.13e-05 3.96577 -0.891038 10244.9 10277.7 139.953 -31017.2 
58 1.15e-05 -5.845 -1.20687 10352.7 10347.8 75.8157 -86182.4 
59 1.17e-05 3.54569 -2.72601 10637.5 10259 1.42374 -70805.5 
60 1.19e-05 3.80512 -1.20601 10765.9 10219.8 43.2459 -65200.1 
61 1.21e-05 0.807196 -2.38722 10604.5 10320.8 2.15501 -42317.9 
62 1.23e-05 2.13594 -2.81029 10468.9 10354.9 7.28037 -69650.4 
63 1.25e-05 0.0695501 -2.88115 10529 10357 -1.96429 -25542.7 
64 1.27e-05 -10.4761 -2.94436 10702.5 10301.5 -19.6716 -65548.4 
65 1.29e-05 -8.85676 -3.06728 10493.4 10403.5 18.942 -17071.6 
66 1.31e-05 -1.96863 -3.08326 10154.6 10326.4 0.162615 -39089.2 
67 1.33e-05 -1.85715 -3.74419 10539.3 10421.9 -15.908 -30400.1 
68 1.35e-05 0.251153 -2.95671 10302.3 10331.8 39.9154 -39399.2 
69 1.37e-05 2.50111 -3.75466 10087.6 10292.7 22.3208 -37331.2 
70 1.39e-05 -0.977464 -4.63992 10561.1 10439.6 32.1538 -40505.5 
71 1.41e-05 8.66999 -5.40479 10821.5 10433 46.6559 -1312.21 
72 1.43e-05 3.36612 -3.08826 10383.5 10339.4 92.8786 -63297.2 
73 1.45e-05 -4.99886 -2.85308 10536 10328.5 59.389 -39579.3 
74 1.47e-05 3.56503 -0.971114 10634.4 10403.2 234.404 -91789.2 
75 1.49e-05 3.63921 -1.46664 10731.5 10418.9 48.6757 -66005.6 
76 1.51e-05 -2.95299 -2.22122 10134.9 10352.1 57.5341 -56274.4 
77 1.53e-05 -5.043 -1.86954 10682.9 10307.6 24.9535 -38607 
78 1.55e-05 -2.84139 -1.60958 10554.7 10500.5 42.5822 -80095.5 
79 1.57e-05 -1.8644 -2.4998 10334 10295 9.17396 -58598.3 
80 1.59e-05 -2.19801 -0.176391 10369.9 10386 29.4533 -97843.3 
81 1.61e-05 1.42414 -1.01144 10290.9 10367.4 -5.74715 -88870 
82 1.63e-05 3.25307 -1.96371 10112.1 10321.5 -17.85 -66751.2 
83 1.65e-05 2.98947 -1.31159 10006.8 10409.2 -2.00378 -58026.8 
84 1.67e-05 1.48033 -3.17901 10442.5 10428.3 75.0293 -71562.1 
85 1.69e-05 -3.91756 -0.9241 10393 10366.8 -28.4567 -71724.5 
86 1.71e-05 -6.91364 -2.15203 10310.8 10355.6 15.5426 -73417.3 
87 1.73e-05 2.82455 1.91948 10360.6 10372 26.1395 -124283 
88 1.75e-05 9.38281 0.816507 10405.7 10397.9 -85.0662 -92992.5 
89 1.77e-05 3.12528 1.26172 10269 10462.8 19.7713 -112907 
90 1.79e-05 -2.27634 1.3614 9950.59 10322.2 -37.2401 -81003.9 
91 1.81e-05 0.0133621 0.923462 10297.4 10431.6 39.4361 -81253.4 
92 1.83e-05 5.14036 0.480602 10567.4 10426.6 -54.5387 -121385 
93 1.85e-05 6.5678 0.804438 9956.83 10464.5 68.2993 -107790 
94 1.87e-05 -2.55628 1.07942 9932.46 10371 42.5862 -77812.2 
95 1.89e-05 2.09847 2.48844 10504.5 10448.1 35.6767 -95304.8 
96 1.91e-05 -4.44525 1.75251 10410 10388.2 -13.2492 -84166.6 
97 1.93e-05 -0.814134 0.701606 10403.6 10472.4 23.6323 -65074 
98 1.95e-05 0.719228 0.778097 10521.5 10458.4 -12.0633 -72327.1 
99 1.97e-05 -0.869649 -1.25445 10641.1 10443.6 16.2217 -61200.5 
100 1.99e-05 -2.34126 -0.718887 10492.6 10406.9 28.2691 -70553.3 
101 2.01e-05 -3.79542 0.361823 10217.1 10386 107.763 -105663 
102 2.03e-05 -3.81924 -1.24258 10563.4 10346.5 41.4206 -71109.3 
103 2.05e-05 -7.99851 0.63789 10541.5 10344.7 114.791 -82069.8 
104 2.07e-05 -2.88941 -1.06175 10839.4 10457.7 101.512 -62307.1 
105 2.09e-05 -4.53644 -1.55981 10577.3 10433.7 112.035 -91258.6 
106 2.11e-05 -5.51565 0.504775 10521.3 10328.4 92.2904 -83793.8 
107 2.13e-05 -7.35889 1.30567 10597.6 10487.8 165.823 -100733 
108 2.15e-05 -3.44753 0.233668 10284.8 10439.1 208.951 -85827.8 
109 2.17e-05 -7.61441 -0.568741 9853.84 10392.9 171.131 -60156.5 
110 2.19e-05 -6.39476 -0.782043 10476.3 10406.5 140.376 -67459.1 
111 2.21e-05 -4.26647 1.62844 10336.7 10415.2 112.253 -88047.5 
112 2.23e-05 -7.34922 1.46217 10172.4 10389.5 123.189 -66510.6 
113 2.25e-05 -4.73767 1.47773 10185.9 10434.1 136.206 -80521.7 
114 2.27e-05 -6.1634 1.77137 10197.6 10460.3 52.5235 -96151.5 
115 2.29e-05 -1.21269 0.0626253 10440 10407.9 116.737 -76411.8 
116 2.31e-05 -5.20867 1.05437 10159.5 10439.8 173.688 -57562 
117 2.33e-05 -7.70422 -0.30202 10537 10388.6 159.949 -48106.9 
118 2.35e-05 -12.496 0.939995 10522.9 10467.6 153.262 -78846.3 
119 2.37e-05 -3.03678 0.60674 10349.6 10481.4 36.1032 -65847.4 
120 2.39e-05 0.797519 1.32405 10170.9 10350.1 18.2738 -64144.7 
121 2.41e-05 -7.65672 0.215139 10358.9 10433.1 -38.5182 -72836.9 
122 2.43e-05 -5.96679 0.254599 10383.2 10438.7 -37.5299 -86874.4 
123 2.45e-05 -8.22785 1.47819 10295.8 10398.9 -39.1312 -64399 
124 2.47e-05 -3.20649 0.807213 10414.8 10417.5 -18.3355 -63920.2 
125 2.49e-05 2.22099 1.1708 10552 10346.6 17.5369 -110804 
126 2.51e-05 3.807 0.544687 10391.8 10428.9 22.8457 -80573.2 
127 2.53e-05 1.74447 2.77517 10097.6 10373.1 -54.5113 -95237.7 
128 2.55e-05 4.7552 0.703046 10429.7 10376.6 -117.688 -70435.4 
129 2.57e-05 2.58964 1.29805 10149.3 10456.8 -101.159 -73855.2 
130 2.59e-05 8.35189 -1.00246 10614.6 10406.6 -89.4866 -104118 
131 2.61e-05 9.24471 -0.361881 10672 10450.8 -40.8998 -123687 
132 2.63e-05 -3.90936 -3.25434 11006.6 10416.8 -137.151 -47164.2 
133 2.65e-05 -3.37249 -0.387732 10757.3 10433 19.9092 -113198 
134 2.67e-05 0.617383 -0.333047 10793.5 10354.1 -38.6893 -89307.1 
135 2.69e-05 -2.26148 0.296138 10385.1 10363.3 -27.7618 -80116.1 
136 2.71e-05 3.80049 0.276795 10140.5 10325.9 71.1845 -92050.4 
137 2.73e-05 -1.86917 -1.63397 10542.7 10335.6 76.9803 -67988.7 
138 2.75e-05 0.720603 0.0859035 10606.8 10373.1 55.9278 -77587.8 
139 2.77e-05 -3.87346 -2.45174 10868.3 10431.3 38.3181 -58473.7 
140 2.79e-05 -2.26098 -2.19143 10558.4 10351.3 95.9027 -68608.2 
141 2.81e-05 5.36854 -1.09079 10679.9 10441.1 70.5401 -92215 
142 2.83e-05 3.34644 1.62111 10893 10400.8 108.721 -103063 
143 2.85e-05 3.07214 0.43595 10618.3 10397.5 59.5472 -90556 
144 2.87e-05 -2.02251 -0.166866 10414.1 10486.2 50.4845 -113229 
145 2.89e-05 -0.306984 0.68192 10551.8 10378.7 142.72 -87544 
146 2.91e-05 2.65115 1.17608 10387.8 10422.8 84.3962 -94694.8 
147 2.93e-05 7.14447 -0.0612251 10550.3 10432.6 87.8016 -89224.4 
148 2.95e-05 2.58071 -1.35812 10464.8 10483.5 66.537 -89955.3 
149 2.97e-05 2.84148 -0.327006 10676.9 10388.2 107.583 -85967.9 
150 2.99e-05 8.26256 0.339555 10633.8 10446.6 51.7996 -85780.8 
151 3.01e-05 -0.291161 1.53858 9838.07 10345.1 95.6298 -102046 
152 3.03e-05 -2.05072 0.617626 10307.6 10342.2 91.6918 -113464 
153 3.05e-05 4.86948 -0.0362419 10113.8 10340.3 1.91172 -68599 
154 3.07e-05 2.96533 -0.142811 10490.9 10385 64.2843 -99321.3 
155 3.09e-05 3.28185 0.219957 10647.9 10431 80.2957 -105585 
156 3.11e-05 1.97646 2.03857 10763.9 10337.9 75.9334 -137822 
157 3.13e-05 -3.52442 -0.667743 10604.3 10397.6 39.3287 -72182 
158 3.15e-05 1.99025 -0.809496 10917.8 10354.2 16.8564 -85114.2 
159 3.17e-05 0.917574 -0.936506 10937.6 10455.2 44.1548 -48477.7 
160 3.19e-05 1.36561 -0.15869 10618.4 10498.4 -2.8066 -101008 
161 3.21e-05 1.20811 -0.906243 10320 10352.4 192.468 -71964 
162 3.23e-05 3.33124 -0.539607 10780.9 10393.3 147.823 -78867.9 
163 3.25e-05 -2.133 0.705063 10668.3 10419.4 106.687 -98333.2 
164 3.27e-05 -1.41485 -0.944085 10225.3 10398.1 146.829 -112153 
165 3.29e-05 -1.4554 -0.441373 10650.2 10392.1 45.3482 -100737 
166 3.31e-05 -7.38812 -0.218886 10515.9 10434 79.6206 -81766.3 
167 3.33e-05 -7.68856 -1.14362 10033.7 10446.4 108.204 -67899.4 
168 3.35e-05 -11.5014 1.25319 10210.7 10417 154.058 -96836.7 
169 3.37e-05 -9.58097 -0.468198 10476.4 10455.2 115.345 -103505 
170 3.39e-05 -1.52332 -1.14931 10358.2 10390.8 63.2918 -85972 
171 3.41e-05 4.0088 -1.84356 10594.2 10460.5 116.167 -48740.6 
172 3.43e-05 0.424034 -2.76312 10651.3 10375.1 105.049 -95270.7 
173 3.45e-05 -2.59529 -2.44064 10503.8 10434.7 79.2996 -80763.3 
174 3.47e-05 10.0894 -2.30819 10684.9 10376.8 61.2591 -78084.8 
175 3.49e-05 10.562 -2.52933 10422.8 10489.6 13.9061 -37313 
176 3.51e-05 1.25219 -2.72149 10609.8 10418.3 101.254 -91305.2 
177 3.53e-05 4.45884 -0.3138 10726.3 10409.9 78.3614 -101767 
178 3.55e-05 -3.09763 -1.82173 11028.3 10525.9 31.1669 -83702.1 
179 3.57e-05 7.35662 -0.552652 10901.3 10361.1 66.4182 -93697.5 
180 3.59e-05 4.51813 -0.814338 10421.6 10389.4 42.3407 -71856.2 
181 3.61e-05 1.96942 -0.343486 10900.7 10377 -51.4238 -65507.8 
182 3.63e-05 -2.43306 -1.89105 10971.8 10379.8 72.9513 -90068.8 
183 3.65e-05 -2.0444 -0.958608 10960.5 10393 33.7089 -97230.3 
184 3.67e-05 4.37403 -2.46115 11008.2 10391.5 74.6051 -66222.1 
185 3.69e-05 4.24079 -1.57496 10631.5 10385.8 57.5809 -70742.8 
186 3.71e-05 11.6102 -0.879333 10666.1 10447.7 -3.80463 -105248 
187 3.73e-05 5.16516 -1.51336 10270.2 10388.9 133.866 -77723.5 
188 3.75e-05 4.96615 0.012382 10685.1 10448 108.239 -89518.9 
189 3.77e-05 9.15656 -1.74606 10291.8 10319.5 50.5829 -107424 
190 3.79e-05 8.1471 -0.81038 10185.1 10320.3 95.5053 -101090 
191 3.81e-05 6.00172 -1.16113 10319.7 10349.2 72.9661 -78800.7 
192 3.83e-05 3.37805 0.689538 10342.1 10428.2 117.201 -129089 
193 3.85e-05 13.875 0.450082 10305 10356.5 51.3541 -101548 
194 3.87e-05 8.67126 -0.9268 10618.4 10388.5 59.1906 -72349.9 
195 3.89e-05 3.96606 1.41391 10884.9 10342 167.817 -92721.2 
196 3.91e-05 8.88099 0.115634 10037.1 10346.5 127.9 -81583.8 
197 3.93e-05 9.8879 -1.41461 10562.7 10346.7 111.698 -82822.7 
198 3.95e-05 6.57841 0.556255 10835.7 10422.2 111.735 -87062.5 
199 3.97e-05 4.78928 0.845357 10606.3 10440.9 114.336 -75831 
200 3.99e-05 0.527295 -0.269103 10767.4 10433.4 149.978 -49170.4 
