ITEM: TIMESTEP
100000
ITEM: NUMBER OF CELLS
200
ITEM: BOX BOUNDS pp ss pp
0 0.0001
0 4e-05
0 0.0001
ITEM: CELLS id yc f_vel[1] f_vel[2] f_mom[1] f_mom[2] f_mom[3] f_q[*] 
1 1e-07 1.11216 -0.140927 10763.3 10697.4 -12.8478 -84089.4 
2 3e-07 1.33722 -0.0785849 10729.2 10701.9 1.12764 -87120.9 
3 5e-07 1.60958 -0.0916052 10677.4 10695.6 -5.44307 -89707 
4 7e-07 1.84702 -0.293612 10683 10697.6 -1.24568 -84005.1 
5 9e-07 1.26682 -0.125014 10722.5 10701.1 -2.78904 -88110.3 
6 1.1e-06 1.55214 0.231226 10707.5 10662.8 -14.7055 -94883.7 
7 1.3e-06 1.54542 0.040708 10649.4 10687.7 3.33708 -87578.4 
8 1.5e-06 1.15563 -0.137977 10674.9 10686.7 -18.3255 -84127.3 
9 1.7e-06 0.904 -0.177546 10644.8 10702.9 -6.16415 -85401.1 
10 1.9e-06 1.8369 -0.199842 10670.9 10696 -10.9612 -83580.6 
11 2.1e-06 1.56289 -0.242015 10657.1 10687.9 11.5232 -84105.2 
12 2.3e-06 1.06044 -0.0600511 10688.7 10687.1 18.0623 -86310.4 
13 2.5e-06 1.47189 -0.282131 10675.4 10671.6 6.51429 -86947.4 
14 2.7e-06 1.75862 -0.430413 10694.5 10706 -1.17079 -89741.5 
15 2.9e-06 3.13601 -0.326586 10683.3 10686.5 -0.222469 -87041.9 
16 3.1e-06 2.19281 -0.370687 10693.8 10707.8 18.2471 -87679.3 
17 3.3e-06 1.39675 -0.243777 10623.7 10681.9 -6.1518 -86464.8 
18 3.5e-06 2.08118 0.157349 10626.3 10685.1 1.89992 -89668.4 
19 3.7e-06 1.59483 -0.360386 10614.9 10690.5 24.3033 -82801.2 
20 3.9e-06 1.5738 -0.200366 10741.6 10675.7 5.47136 -84835.5 
21 4.1e-06 1.59428 0.106701 10719.1 10673.1 -8.62009 -87841.3 
22 4.3e-06 1.92145 -0.18209 10728.1 10673.4 17.021 -88013.5 
23 4.5e-06 0.963531 -0.314287 10624.3 10666.8 28.2614 -84746.7 
24 4.7e-06 -0.119524 -0.183483 10652 10676.3 -12.3807 -84423.5 
25 4.9e-06 1.71421 -0.113269 10616.4 10676.4 -17.2894 -85069.7 
26 5.1e-06 1.64234 -0.276932 10702.8 10700.1 -7.52099 -82275.8 
27 5.3e-06 1.51234 0.0231583 10697.8 10687.3 -17.1812 -84442.8 
28 5.5e-06 1.63491 -0.24234 10649.3 10695.7 -13.9392 -88312.6 
29 5.7e-06 1.32113 -0.325186 10700.6 10702.5 5.39759 -83961.3 
30 5.9e-06 1.65531 0.0683717 10675.8 10697.1 1.52122 -88384.8 
31 6.1e-06 1.46551 -0.189516 10643.1 10671.6 -6.30776 -86127.7 
32 6.3e-06 1.0012 -0.233447 10654.1 10683.4 13.7532 -83747 
33 6.5e-06 0.111374 0.030342 10654.5 10677.3 11.5242 -86633 
34 6.7e-06 0.371767 -0.119065 10615.4 10661.5 -9.8084 -87898.4 
35 6.9e-06 0.587298 -0.453701 10705.2 10684.1 -5.7603 -82561.3 
36 7.1e-06 0.827034 -0.0300444 10694.5 10685.7 1.20227 -92105.1 
37 7.3e-06 0.974323 -0.166721 10643.7 10680.7 -3.55234 -85535.9 
38 7.5e-06 -0.376527 -0.159026 10696.6 10678.8 -8.25119 -86822.2 
39 7.7e-06 1.19241 0.072097 10645.7 10678.6 -17.5394 -89238.4 
40 7.9e-06 0.771032 0.0708308 10634.2 10680.2 3.87444 -85171.7 
41 8.1e-06 1.01726 0.0454361 10673.9 10658.9 -4.1241 -90756.7 
42 8.3e-06 0.929581 -0.011191 10673.6 10676 -0.580011 -86552.9 
43 8.5e-06 0.155799 0.216582 10622.3 10674.1 -1.57718 -88216 
44 8.7e-06 -0.699275 -0.442433 10641.5 10686.8 2.75813 -81031.4 
45 8.9e-06 1.31579 -0.188007 10638.9 10680.9 3.80788 -86949.7 
46 9.1e-06 0.525801 -0.186508 10653.2 10684.3 2.25028 -85872 
47 9.3e-06 1.46444 0.322275 10690.7 10677 -3.15935 -94927.3 
48 9.5e-06 1.23316 -0.354402 10714.6 10680.3 -5.90507 -83657.3 
49 9.7e-06 0.636794 -0.0824431 10679.9 10662.7 3.91975 -85029.8 
50 9.9e-06 0.352351 -0.055052 10700 10680.5 -19.6599 -85983.7 
51 1.01e-05 -0.526672 -0.0153946 10679.2 10677.1 1.68875 -87520.6 
52 1.03e-05 0.626361 0.142498 10649.6 10670.1 -4.32601 -89187.2 
53 1.05e-05 -0.331226 0.0497758 10643.5 10678.3 -9.22403 -92619.9 
54 1.07e-05 -0.447847 0.120698 10585.3 10647.9 -8.07831 -92157.1 
55 1.09e-05 -0.535823 0.0527089 10708.7 10690.6 11.5572 -93702.5 
56 1.11e-05 -0.284451 -0.0138528 10652.3 10673 1.12795 -88316.1 
57 1.13e-05 -0.497731 -0.205276 10671.1 10668.9 -6.88132 -83989.4 
58 1.15e-05 0.0842897 -0.405433 10747.8 10669 1.21646 -83782.5 
59 1.17e-05 0.654895 -0.312788 10689.5 10684.9 1.68424 -86181.1 
60 1.19e-05 -0.734638 0.047029 10634.7 10659.6 -1.24922 -88854.3 
61 1.21e-05 -0.932956 -0.0972378 10613 10674.2 4.73867 -92668.9 
62 1.23e-05 -1.11685 -0.33501 10627.7 10665.5 1.72598 -82863.2 
63 1.25e-05 -1.01451 -0.135025 10723.6 10673.6 -5.3632 -86866.7 
64 1.27e-05 -0.108796 0.0587869 10640.6 10682.7 1.14629 -94221.2 
65 1.29e-05 0.136667 -0.263077 10605.8 10666.6 -1.8413 -85743.9 
66 1.31e-05 -0.983052 -0.0152158 10673.6 10682.4 -9.05872 -93239.7 
67 1.33e-05 -0.660447 -0.0344003 10626.7 10669.5 2.43582 -87751.1 
68 1.35e-05 -0.397861 -0.214399 10668.8 10681.5 8.56194 -88364.4 
69 1.37e-05 -0.161201 -0.0161383 10613.9 10663.5 -4.15959 -92303.3 
70 1.39e-05 0.947333 -0.271033 10627.8 10662.2 -2.69067 -87269.4 
71 1.41e-05 -0.158011 0.097922 10647.3 10668.9 4.30703 -90635.5 
72 1.43e-05 0.808091 0.0780009 10743.2 10675.4 13.0447 -92147.5 
73 1.45e-05 -0.683531 0.11171 10648.8 10669.8 4.51469 -89122.3 
74 1.47e-05 -0.226478 -0.123474 10719.4 10686.8 -0.329398 -89829.7 
75 1.49e-05 -0.45567 0.0031142 10748.9 10673.3 -4.0662 -87638.5 
76 1.51e-05 -0.688917 0.0126738 10623.9 10666.1 3.05268 -85862.1 
77 1.53e-05 -1.40715 -0.239378 10670.1 10673.1 9.14463 -88014 
78 1.55e-05 -2.13889 -0.267281 10642.8 10667.3 5.95798 -88513.5 
79 1.57e-05 -1.09455 -0.256845 10627.9 10675.4 -6.75875 -87789 
80 1.59e-05 -1.2814 0.0296326 10704.6 10684.6 9.68418 -85103 
81 1.61e-05 -1.69551 -0.122856 10698.4 10674.8 -7.69922 -88802.8 
82 1.63e-05 -0.27244 0.217652 10641.9 10667.2 -2.98179 -91886 
83 1.65e-05 -0.470417 0.0198898 10618.5 10680 -4.95818 -84560.7 
84 1.67e-05 -0.459615 0.0252959 10628 10661.3 -3.09374 -90345.2 
85 1.69e-05 0.344528 0.177603 10646.6 10676.4 -3.55911 -89598.5 
86 1.71e-05 -1.62057 0.192215 10655.9 10654.7 -5.07592 -88637.2 
87 1.73e-05 0.951199 -0.00884761 10654.9 10665.3 -7.38808 -85340.3 
88 1.75e-05 0.149589 -0.125456 10640.6 10681.9 7.64152 -86648.9 
89 1.77e-05 -0.626751 -0.296334 10636.5 10675.8 4.55859 -88525.3 
90 1.79e-05 0.0680594 0.221376 10642.9 10660.7 -1.80563 -90335.7 
91 1.81e-05 -0.446364 -0.143986 10657.2 10666.6 5.28749 -83203.1 
92 1.83e-05 -0.290664 0.0876885 10611.3 10679.1 -17.1245 -87497.7 
93 1.85e-05 -0.812169 -0.200125 10660.3 10666.5 7.6325 -91109.6 
94 1.87e-05 -0.942769 -0.103026 10678.5 10674 5.02635 -84115.3 
95 1.89e-05 0.248763 -0.118992 10642.1 10661.6 11.1173 -85946.4 
96 1.91e-05 -0.979653 0.0145035 10717.5 10672.9 -3.56585 -91142.9 
97 1.93e-05 -1.53361 -0.129393 10642 10662.8 0.932948 -82980.2 
98 1.95e-05 -1.28581 -0.31293 10645.7 10663.6 -3.6236 -84473.3 
99 1.97e-05 -1.97093 -0.0711642 10660.8 10667.5 14.187 -85213.9 
100 1.99e-05 -3.06879 -0.0265539 10717.4 10668.6 5.48104 -86148.3 
101 2.01e-05 -3.12179 -0.436251 10702.6 10671.7 1.65597 -85245.1 
102 2.03e-05 -1.73152 -0.197415 10635.7 10656 -6.04534 -89179.9 
103 2.05e-05 -1.39202 -0.00073924 10662.2 10677.9 -15.9772 -88868.5 
104 2.07e-05 -0.606225 -0.146222 10740.7 10668.9 -14.5812 -87236.5 
105 2.09e-05 -0.729843 0.147089 10641.3 10666 20.7756 -89710.9 
106 2.11e-05 -2.01371 -0.124991 10601.6 10666 -11.2164 -85945.6 
107 2.13e-05 -0.929665 0.0627123 10606.3 10657.3 2.8582 -94664.3 
108 2.15e-05 -1.6446 -0.0198952 10699.7 10662.9 -5.73824 -87456.9 
109 2.17e-05 -0.824891 0.0585186 10689.8 10662.1 -2.70842 -87064.8 
110 2.19e-05 -0.427384 -0.0761818 10628.4 10675.8 3.06024 -80969.5 
111 2.21e-05 -1.20242 -0.114618 10683.4 10657.6 1.69445 -86508.8 
112 2.23e-05 -1.34148 0.00400739 10704.9 10672.2 -5.71653 -87483.9 
113 2.25e-05 -1.54321 0.0169554 10645.5 10681.6 8.53093 -88167.6 
114 2.27e-05 -2.28553 0.195876 10683.7 10657.5 14.9057 -94204.5 
115 2.29e-05 -2.62586 0.202069 10684.9 10667.3 11.3072 -88927.9 
116 2.31e-05 -3.14484 0.10921 10690 10664.6 0.141138 -87822.8 
117 2.33e-05 -2.65404 -0.296851 10663.4 10661 -5.92386 -84897.5 
118 2.35e-05 -2.88275 0.143283 10697.1 10655 -2.85964 -93135.6 
119 2.37e-05 -1.77908 -0.0451238 10678.2 10653.1 -6.27037 -89595.3 
120 2.39e-05 -1.74588 0.0975512 10648.1 10672.2 -4.26815 -90245 
121 2.41e-05 -1.32713 -0.138227 10649 10675.3 2.01574 -88043.4 
122 2.43e-05 -1.70603 0.127251 10657.5 10671.7 -2.90062 -87832.9 
123 2.45e-05 -1.49658 0.126014 10623.7 10662.5 -12.3994 -95259.5 
124 2.47e-05 -1.0058 -0.201771 10655.6 10680.8 8.57488 -90726.1 
125 2.49e-05 -1.86568 -0.244879 10651.7 10663.2 6.6655 -84579.4 
126 2.51e-05 -1.11468 0.123682 10694 10671.2 -4.1767 -91552.6 
127 2.53e-05 -2.08305 0.161667 10674.4 10660.3 14.2577 -95783.4 
128 2.55e-05 -1.38628 -0.0962069 10622.5 10666.8 -0.667126 -85352.4 
129 2.57e-05 -1.96117 -0.119234 10580.5 10668 4.95758 -85861.8 
130 2.59e-05 -2.0299 0.12038 10576.3 10659.7 2.49082 -86447.4 
131 2.61e-05 -0.320778 0.112616 10672 10669.6 -0.376444 -83280.9 
132 2.63e-05 -1.14994 0.0986995 10605.5 10663.2 -3.11554 -85145.2 
133 2.65e-05 -1.21981 -0.287306 10580.6 10664.7 0.445896 -82002.3 
134 2.67e-05 -2.586 -0.0690756 10663.5 10682 11.4232 -81027.9 
135 2.69e-05 -1.25649 -0.133016 10660.8 10670.4 -2.56705 -88101.2 
136 2.71e-05 -1.98234 -0.00210657 10689.3 10659.6 3.88637 -86304.6 
137 2.73e-05 -1.52055 -0.11119 10671.9 10661.4 0.479466 -83097.4 
138 2.75e-05 -1.62878 -0.46384 10649.4 10669.8 15.664 -84458.2 
139 2.77e-05 -1.8596 -0.266034 10627 10665.3 4.99449 -89492.9 
140 2.79e-05 -3.00627 -0.180179 10666.5 10659.7 7.08597 -88392.6 
141 2.81e-05 -2.13172 -0.248141 10664.6 10661.1 -1.72667 -88259.5 
142 2.83e-05 -2.13628 0.0375442 10684.7 10663.2 2.24094 -88932.2 
143 2.85e-05 -2.2546 -0.173214 10677.1 10659.5 -0.235521 -86139 
144 2.87e-05 -1.78717 -0.0402077 10701.4 10666 -16.3844 -85042.2 
145 2.89e-05 -0.33016 0.0703785 10689.1 10660.1 -2.52022 -84714.4 
146 2.91e-05 -0.924993 -0.0475101 10687.9 10662.2 -1.3789 -85566.7 
147 2.93e-05 0.0379538 0.0182818 10605.7 10669.8 4.44872 -86754.2 
148 2.95e-05 0.128082 0.251113 10688.8 10653.8 2.54892 -93430.9 
149 2.97e-05 -1.08673 -0.150448 10690.4 10671.6 8.5767 -90877 
150 2.99e-05 -1.01815 -0.0782453 10647.1 10660.8 16.3022 -87933.6 
151 3.01e-05 -0.431287 -0.0890731 10601.5 10646.6 10.2966 -85118.8 
152 3.03e-05 -0.224116 0.0984938 10625.3 10639.1 14.5434 -91105.5 
153 3.05e-05 0.0511209 0.035658 10651.1 10659.7 6.12224 -87115.1 
154 3.07e-05 -0.0670996 -0.139351 10680.6 10658.4 6.84746 -81334.9 
155 3.09e-05 -0.883398 0.189 10654.6 10660.3 2.87609 -89907 
156 3.11e-05 -0.589809 -0.180831 10629.3 10653.6 10.4555 -84288.4 
157 3.13e-05 -1.56464 0.177842 10631.7 10672.8 -2.23145 -86050.4 
158 3.15e-05 -2.11354 0.0447795 10692.8 10663.3 1.94658 -86148.5 
159 3.17e-05 -1.32256 0.13594 10672.6 10651.9 5.74841 -92896.2 
160 3.19e-05 -2.05161 0.00977189 10708.7 10653.8 -8.73221 -88729.4 
161 3.21e-05 -2.8578 -0.150609 10673.1 10639 -2.08744 -88680.5 
162 3.23e-05 -2.25025 -0.111797 10681.7 10664.9 -1.00583 -87543.7 
163 3.25e-05 -2.28652 0.113798 10656.2 10652.6 3.83866 -93697.3 
164 3.27e-05 -3.74162 0.0183503 10646.4 10656 2.65981 -90056.1 
165 3.29e-05 -2.46082 -0.211682 10679.7 10671.8 -9.72245 -87548.1 
166 3.31e-05 -2.72284 0.140015 10625.4 10653.5 6.64344 -89433.3 
167 3.33e-05 -1.40564 -0.274855 10675.6 10671.5 -4.70516 -85643.4 
168 3.35e-05 -0.912759 0.134748 10686.2 10661.8 8.94459 -97080.1 
169 3.37e-05 -1.01456 -0.0601319 10717.8 10665.2 -6.86188 -90617.7 
170 3.39e-05 -1.22184 0.0131805 10663.8 10664.3 1.30318 -86501.6 
171 3.41e-05 -1.55452 0.0740947 10696.8 10663.1 5.4727 -91135 
172 3.43e-05 -1.72793 -0.126529 10648.5 10667.7 4.38061 -87630.8 
173 3.45e-05 -1.33214 0.142265 10611.5 10657.3 2.50585 -93384.9 
174 3.47e-05 -2.49924 0.0686336 10680.1 10676.2 2.37948 -90057.6 
175 3.49e-05 -2.08113 -0.0373472 10641.1 10652.5 4.37057 -91269.9 
176 3.51e-05 -2.30208 0.0854142 10618.8 10658.7 10.5757 -87974.3 
177 3.53e-05 -0.426036 -0.00867107 10650.7 10664 -12.1661 -87901.4 
178 3.55e-05 -1.65255 -0.088465 10648.1 10666.5 4.57908 -82122.9 
179 3.57e-05 -2.01173 0.233363 10685.1 10665.6 -16.0663 -90265.2 
180 3.59e-05 -1.29814 0.0697866 10702.9 10659.3 7.8503 -87686.2 
181 3.61e-05 -1.25334 -0.129554 10702.7 10664 -10.895 -83625.6 
182 3.63e-05 -0.550311 0.259329 10682.3 10663.3 -8.23657 -88204.3 
183 3.65e-05 -1.03793 -0.0162115 10550.2 10654.7 -4.53069 -89781.9 
184 3.67e-05 -0.414126 -0.280471 10631.8 10656.4 2.69595 -84326 
185 3.69e-05 -0.836116 -0.0824342 10735.2 10652.9 -0.871676 -86735.8 
186 3.71e-05 -0.11805 -0.198919 10722.3 10657.9 16.2031 -87675 
187 3.73e-05 -0.923827 -0.0392203 10674.2 10654.9 0.840688 -86531.2 
188 3.75e-05 -0.890781 0.178714 10655.3 10651.5 -1.39272 -86236.8 
189 3.77e-05 -1.3168 0.0935874 10679 10669.7 4.99022 -82177.6 
190 3.79e-05 -1.3827 -0.226884 10656.6 10646.1 -2.55051 -89893.2 
191 3.81e-05 -2.20292 -0.0590222 10747.2 10666.4 -8.15844 -85518 
192 3.83e-05 -1.67904 -0.0593137 10640.9 10662.4 -4.63262 -87094.7 
193 3.85e-05 -1.79147 -0.0217265 10646.9 10648.4 -15.0442 -84897.5 
194 3.87e-05 -1.21082 -0.190441 10692.4 10661.4 -4.80499 -83731 
195 3.89e-05 -0.498704 -0.0282207 10658.7 10659.7 7.83626 -82618.7 
196 3.91e-05 -2.05329 0.0250554 10695.1 10654.7 5.5993 -81877.4 
197 3.93e-05 -1.95004 -0.0184902 10739.2 10662.3 -5.73317 -84314.4 
198 3.95e-05 -0.667453 -0.201286 10716.7 10650.2 -9.12078 -80397.8 
199 3.97e-05 -0.745667 0.456864 10695 10670.9 0.488404 -89944.6 
200 3.99e-05 -0.839326 -0.0375899 10662.7 10681.3 -13.9223 -76710.6 
