ITEM: TIMESTEP
250000
ITEM: NUMBER OF CELLS
200
ITEM: BOX BOUNDS pp ss pp
0 0.0001
0 4e-05
0 0.0001
ITEM: CELLS id yc f_vel[1] f_vel[2] f_mom[1] f_mom[2] f_mom[3] f_q[*] 
1 1e-07 0.289748 0.00283678 10475.5 10482.1 -1.34655 -79208.1 
2 3e-07 0.498399 -0.00415231 10484.1 10487.5 1.48937 -79774 
3 5e-07 0.92056 0.011602 10478.5 10484.1 -0.833828 -80310.4 
4 7e-07 0.31872 -0.00874649 10466.5 10482 3.3922 -80469.9 
5 9e-07 0.486588 -0.00441854 10437.5 10479.5 -3.87916 -79269.8 
6 1.1e-06 0.569752 0.0118691 10462 10484 -1.79306 -80934.9 
7 1.3e-06 0.523318 -0.000334719 10479 10483 -2.52271 -79589.2 
8 1.5e-06 0.731721 -0.0141058 10484.9 10481.8 -1.94855 -79387.4 
9 1.7e-06 0.221772 -0.0100059 10486.3 10482.8 -0.891586 -80546.1 
10 1.9e-06 0.289451 0.00319106 10495.8 10478.6 -0.507066 -79225.2 
11 2.1e-06 0.135818 0.00799542 10495.5 10483.9 0.796471 -81359.9 
12 2.3e-06 0.195397 -0.0106803 10522.3 10483.1 1.95964 -80044.5 
13 2.5e-06 0.510767 -0.0118009 10481.4 10483.3 -1.68869 -81480.5 
14 2.7e-06 0.134254 0.0113497 10474.9 10480.1 -5.6537 -79677.5 
15 2.9e-06 0.221766 -0.00262333 10474.3 10487.6 -3.88037 -80272.4 
16 3.1e-06 0.484347 0.00167355 10465.9 10482.6 -3.90685 -80704 
17 3.3e-06 0.469776 0.00207736 10471 10482.3 0.210144 -79919.2 
18 3.5e-06 0.743751 0.00396102 10500.9 10485.6 -2.72407 -80243.9 
19 3.7e-06 0.686985 -0.00639621 10481.2 10488.7 -1.59558 -79701.7 
20 3.9e-06 0.850642 0.00258358 10504.4 10481.1 -7.52396 -79941.9 
21 4.1e-06 0.747257 -0.00633751 10491.1 10483.3 -7.55321 -79570.9 
22 4.3e-06 0.36345 -0.0275334 10479.9 10483 -0.446407 -79494.5 
23 4.5e-06 0.685178 -0.00863674 10518 10480.1 -4.28475 -80705.7 
24 4.7e-06 1.24063 -0.0167143 10502.1 10486.9 -3.63882 -80105.6 
25 4.9e-06 1.26346 -0.0087425 10517.7 10481.1 -3.9006 -78836 
26 5.1e-06 0.976426 -0.018648 10542.1 10482.2 -2.54749 -80389.9 
27 5.3e-06 0.936109 -0.00881662 10546.6 10486.5 -0.983438 -79975.4 
28 5.5e-06 0.710919 -0.0107372 10490.8 10484.9 -6.02753 -79499 
29 5.7e-06 0.712451 -0.0110192 10476 10484 -1.19321 -79515.5 
30 5.9e-06 0.515554 -0.000222768 10511.1 10480.4 -2.20211 -78887.9 
31 6.1e-06 -0.124747 -0.0322714 10505.6 10482.3 -1.16633 -80009.8 
32 6.3e-06 0.0626927 -0.0149685 10485.5 10479.7 -3.31207 -79715.9 
33 6.5e-06 0.00610375 -0.00515365 10500.4 10479.9 -0.781696 -79267.8 
34 6.7e-06 0.364637 -0.0304454 10456.6 10483.2 -5.601 -79215.7 
35 6.9e-06 0.634487 -0.0229265 10518.2 10484.8 -2.09702 -80928.2 
36 7.1e-06 0.917233 -0.0127796 10458.3 10484.1 -0.829362 -79293 
37 7.3e-06 0.596538 -0.00887415 10472.2 10478.7 1.32206 -79753 
38 7.5e-06 0.769172 -0.038311 10517.6 10483.6 -2.41534 -79330.4 
39 7.7e-06 0.759579 0.00907387 10459.2 10484.7 0.258943 -79258.1 
40 7.9e-06 0.716264 -0.0359547 10462.9 10480.2 -3.13775 -78089.4 
41 8.1e-06 0.605922 0.000250991 10470.4 10485.2 -1.84345 -79333.1 
42 8.3e-06 0.5353 -0.0126755 10492.5 10485.4 -5.92213 -79965.1 
43 8.5e-06 -0.126077 -0.00883993 10493.3 10478.6 -3.45903 -79010.1 
44 8.7e-06 -0.262045 -0.019691 10487.1 10481.7 -2.78207 -79767.4 
45 8.9e-06 0.192871 -0.000732478 10488.4 10486.3 -2.07225 -78604 
46 9.1e-06 0.311155 -0.00267289 10494.6 10484.8 -0.72819 -79528.6 
47 9.3e-06 0.679293 -0.00621402 10476 10483.3 -3.2211 -79633.4 
48 9.5e-06 0.182935 0.0110493 10476.4 10484.1 -3.11757 -80912.9 
49 9.7e-06 0.281894 -0.0120265 10480.4 10482.7 -0.977795 -79105 
50 9.9e-06 0.281954 0.00679568 10497.5 10484.6 -6.87629 -79584.8 
51 1.01e-05 0.632061 -0.00212608 10525.6 10480.3 -3.7425 -80195 
52 1.03e-05 0.779012 0.0140035 10484.4 10481.7 -4.98941 -80053.6 
53 1.05e-05 0.079941 0.0083003 10449.1 10483.9 -0.351546 -80957.1 
54 1.07e-05 0.384397 0.0169104 10456 10483.6 -1.49946 -79186.5 
55 1.09e-05 0.838656 0.00434821 10436.2 10481.2 -0.718706 -80534.2 
56 1.11e-05 0.767547 0.00391069 10476 10487.2 -5.60126 -80551.9 
57 1.13e-05 0.7722 -0.00468702 10483.8 10483.6 -2.68122 -81241.7 
58 1.15e-05 0.79013 0.0241639 10456.5 10479.5 -5.79073 -79941.5 
59 1.17e-05 0.612874 0.0096836 10468.8 10487.2 0.778021 -80196.7 
60 1.19e-05 0.496672 0.00747107 10462.6 10484.3 -4.0919 -79873.7 
61 1.21e-05 0.66001 0.00732678 10501.5 10483.2 -5.07772 -79544.2 
62 1.23e-05 0.317721 0.000108567 10516.5 10486.7 -0.204518 -79907.9 
63 1.25e-05 -0.684084 0.0341389 10489 10483.3 -1.92205 -80236.5 
64 1.27e-05 -0.634736 0.00810346 10459.7 10483.3 -0.266305 -80695.8 
65 1.29e-05 -1.06057 0.0203368 10476.6 10488.3 -3.86689 -79565.8 
66 1.31e-05 -0.43512 -0.0164505 10464.1 10486.3 -2.33801 -79818.1 
67 1.33e-05 -0.361564 0.0253944 10479.8 10482.8 -9.23862 -78981.7 
68 1.35e-05 -0.0662758 0.00619363 10488.7 10488.5 -1.94648 -80301.4 
69 1.37e-05 -0.379541 0.0240035 10478.2 10484.3 -2.09253 -81695.2 
70 1.39e-05 -0.537749 0.00433017 10490 10478.2 -2.72569 -78678.5 
71 1.41e-05 -1.0557 0.00041425 10432.6 10488.2 -2.10433 -78951.5 
72 1.43e-05 -1.39257 0.0232157 10456.9 10483.2 -1.27319 -80188.5 
73 1.45e-05 -1.79171 0.0208756 10430.1 10485.2 -1.72636 -80286.2 
74 1.47e-05 -1.34055 0.00958774 10483.4 10481.3 -4.23436 -80395.2 
75 1.49e-05 -1.26532 0.0141031 10499.8 10486.9 -4.05791 -80552.9 
76 1.51e-05 -0.987015 0.0388977 10470.7 10479.8 -2.20991 -78804.1 
77 1.53e-05 -0.599347 0.0148039 10488.3 10484.6 -1.0571 -79720 
78 1.55e-05 -0.69494 -0.00219244 10440.1 10483.9 -2.76659 -78666.5 
79 1.57e-05 -0.83921 0.00881281 10441.4 10482.7 -3.60852 -79817.4 
80 1.59e-05 -0.561228 0.0326273 10495.9 10483 -4.57745 -80205.3 
81 1.61e-05 -0.807791 0.0089142 10500.8 10486.3 -3.70799 -80074.2 
82 1.63e-05 -0.509411 0.0179854 10474.2 10485.3 -2.06671 -80070.3 
83 1.65e-05 0.0297749 0.0197559 10460.5 10486.2 -4.26321 -79678.9 
84 1.67e-05 0.237314 0.0210938 10487.7 10484.1 0.481477 -78982.1 
85 1.69e-05 0.381022 0.0274817 10492 10480.4 -4.13834 -80752.9 
86 1.71e-05 0.338326 0.0363354 10490.7 10484.3 -2.1734 -79992.5 
87 1.73e-05 0.223475 0.0142727 10541.3 10483 -4.23967 -80480.9 
88 1.75e-05 0.264026 0.0285616 10533.3 10485.2 -3.01079 -79196.7 
89 1.77e-05 -0.235715 0.0391723 10524.4 10486.4 -3.8917 -79950.6 
90 1.79e-05 0.207865 0.0230187 10492.2 10485.1 1.0098 -80716.3 
91 1.81e-05 0.518168 0.0288282 10478.9 10484.3 -3.06671 -78698.4 
92 1.83e-05 0.317936 0.0290031 10499.3 10489 -0.604568 -79797.8 
93 1.85e-05 0.16611 0.0224653 10481.6 10485.6 -2.12706 -80256.5 
94 1.87e-05 -0.0197865 0.023762 10501.7 10479.5 -3.92556 -80565.9 
95 1.89e-05 -0.249702 0.00973357 10490.5 10484.8 -4.93304 -81395.1 
96 1.91e-05 -0.591314 0.022426 10501.3 10483.5 0.209454 -79840.9 
97 1.93e-05 -0.840622 0.0416497 10470.9 10489.3 -5.94427 -80213.3 
98 1.95e-05 -0.211881 0.0238904 10485.6 10479 -2.85678 -80659.3 
99 1.97e-05 -0.591929 0.00530002 10465 10487.3 -5.0336 -79528.2 
100 1.99e-05 -0.160298 0.00351007 10459.3 10486.7 -3.74718 -79574.7 
101 2.01e-05 -0.214003 0.0488066 10486.6 10486.4 1.48841 -80084.8 
102 2.03e-05 0.264928 -0.00794465 10463.4 10483.1 0.754305 -80680.7 
103 2.05e-05 0.0166653 0.028388 10483.2 10486.6 -1.99163 -77983.7 
104 2.07e-05 0.270376 0.035777 10480.6 10482.6 -2.7444 -80221.3 
105 2.09e-05 0.0437409 0.026339 10463.6 10481.3 -0.407876 -80168.4 
106 2.11e-05 -0.612713 0.0303701 10475.6 10487.4 -2.02139 -80822.8 
107 2.13e-05 -0.48818 0.0207961 10492.2 10485.3 -1.40427 -78864.4 
108 2.15e-05 -0.323155 0.0106833 10479 10491.4 0.0189129 -81676.8 
109 2.17e-05 -0.523906 0.0256038 10478.8 10488.1 0.215077 -80290.9 
110 2.19e-05 -0.971375 0.037707 10474.5 10489.6 -2.04234 -80847.9 
111 2.21e-05 -0.872313 0.0175607 10493 10482.6 -0.557383 -81054.2 
112 2.23e-05 -0.80291 0.0394505 10498.2 10487.5 -5.52077 -80648.8 
113 2.25e-05 -0.280825 0.0189744 10456.5 10486.3 -0.954231 -79830.9 
114 2.27e-05 -1.26041 0.0330705 10469.1 10486.5 -4.80328 -80061.4 
115 2.29e-05 -1.49755 0.0182032 10529.1 10484.6 -4.84464 -79794.6 
116 2.31e-05 -0.903604 0.0358968 10542.4 10483.5 -5.74742 -79758.1 
117 2.33e-05 -1.22569 0.0163914 10519.2 10482.9 -3.31188 -79588.9 
118 2.35e-05 -1.72479 0.0288794 10486.3 10486.7 -0.152556 -80177.7 
119 2.37e-05 -2.57041 0.0288703 10544 10490.2 1.22797 -80924.9 
120 2.39e-05 -2.2078 0.00465732 10525.1 10486.2 -5.82177 -80365.1 
121 2.41e-05 -1.31022 0.0290419 10456.9 10486 1.93822 -78751.7 
122 2.43e-05 -1.28954 0.0119767 10490.9 10486.4 -3.13608 -79503.3 
123 2.45e-05 -1.06695 0.028454 10487.9 10484.3 -4.55729 -80559.4 
124 2.47e-05 -1.00175 -0.00157433 10465.5 10486.5 -6.82555 -79530.3 
125 2.49e-05 -0.949016 0.0564976 10486.4 10487 -2.78565 -79965.6 
126 2.51e-05 -1.47534 -0.0144272 10492.5 10485.1 -0.666393 -78852 
127 2.53e-05 -1.50098 0.0288475 10464.1 10491.2 -2.43068 -78642.4 
128 2.55e-05 -0.970751 -0.00956849 10462.5 10490.8 -3.53924 -80572.8 
129 2.57e-05 -1.50816 0.0355179 10475 10486 -3.55402 -81188.2 
130 2.59e-05 -1.35519 0.0101495 10448.4 10486.6 -1.17317 -79835.6 
131 2.61e-05 -1.59109 0.0220785 10435.9 10487.9 -4.45205 -81264.1 
132 2.63e-05 -1.32097 -0.00759864 10466.7 10485.8 -1.57348 -82543.7 
133 2.65e-05 -1.1352 0.0160076 10455.4 10484.8 -1.54349 -81228.7 
134 2.67e-05 -1.17939 0.0228611 10489.6 10484.3 -0.897048 -79464.3 
135 2.69e-05 -1.05176 0.031575 10523 10487.5 -0.602559 -77549.6 
136 2.71e-05 -1.34652 0.0246081 10497.2 10488 -0.850368 -80252.3 
137 2.73e-05 -1.67567 0.0261169 10451.8 10484.2 -3.2563 -79835.3 
138 2.75e-05 -1.21637 0.0111386 10470.9 10488.2 -5.60692 -79802.5 
139 2.77e-05 -1.42529 0.0467518 10484.7 10488.6 -2.91819 -78775.9 
140 2.79e-05 -1.28937 0.0146085 10476.2 10489.7 -3.43881 -79138.8 
141 2.81e-05 -1.30626 0.0253917 10479.5 10486 -7.01443 -80003.6 
142 2.83e-05 -1.45602 0.0343751 10502 10489.1 -2.52776 -80061.3 
143 2.85e-05 -2.1259 0.0374932 10530.8 10484.7 -0.225489 -78364.2 
144 2.87e-05 -1.47842 0.0114384 10485.5 10488.8 -0.18543 -80654.5 
145 2.89e-05 -1.68575 0.0322575 10459.1 10486 -5.24649 -80502.3 
146 2.91e-05 -2.12129 0.0115114 10441.4 10488.7 0.478939 -80417.7 
147 2.93e-05 -2.34757 0.0414291 10432.9 10486.6 -2.9651 -79550.7 
148 2.95e-05 -0.875187 0.0231693 10472 10486.8 -1.18075 -80066 
149 2.97e-05 -1.2905 0.0438383 10454.4 10485.8 -3.45195 -79004.3 
150 2.99e-05 -1.13511 0.0401695 10474.7 10487.3 -2.66453 -80772.1 
151 3.01e-05 -0.917164 0.0177172 10507.7 10486.4 -2.23883 -79044.5 
152 3.03e-05 -1.44972 0.0425728 10464.8 10486.4 -1.19696 -80746.8 
153 3.05e-05 -1.22498 0.015984 10478.6 10485.6 -3.90476 -79901.9 
154 3.07e-05 -1.39053 0.0236539 10463.5 10485.6 -0.89278 -80056.7 
155 3.09e-05 -1.18695 0.0181675 10447.7 10484 -5.73361 -79551.5 
156 3.11e-05 -1.2661 0.00122724 10463.7 10492 1.60905 -79147.8 
157 3.13e-05 -1.36821 0.0397563 10432.1 10484.4 0.413356 -80663 
158 3.15e-05 -0.727317 0.0147642 10425.1 10487.2 -4.54305 -79506.2 
159 3.17e-05 -0.407679 0.0351124 10472.9 10487.9 -1.69177 -81022.2 
160 3.19e-05 -0.951959 0.0310087 10478.5 10485 -2.88024 -79722.6 
161 3.21e-05 -0.269997 0.0169221 10486.9 10488.9 -1.53345 -79009.7 
162 3.23e-05 0.362118 -0.00815193 10483 10485.4 -3.40941 -79507.7 
163 3.25e-05 0.132401 0.0236023 10460.1 10485.6 -0.895981 -81174.5 
164 3.27e-05 0.913315 -0.00213399 10481.1 10488.7 1.73775 -80664.2 
165 3.29e-05 0.103762 0.0271403 10468 10487.1 -6.22623 -79646.8 
166 3.31e-05 0.328349 -0.00313987 10474.3 10484.6 -3.81478 -81157.3 
167 3.33e-05 0.0529678 -0.0137115 10500.8 10482.9 -2.15351 -79434.3 
168 3.35e-05 0.322724 -0.00202512 10502.7 10489.7 -1.15841 -79922.9 
169 3.37e-05 0.659705 -0.000461848 10538.9 10490.9 -3.71922 -81526.6 
170 3.39e-05 0.753397 -0.0106965 10491.3 10484.3 -1.72622 -79634.3 
171 3.41e-05 0.321744 0.00601334 10464.4 10487.5 -3.55659 -78467.7 
172 3.43e-05 0.801656 0.00825318 10461 10490.4 -3.12295 -79310.8 
173 3.45e-05 -0.145742 -0.0131374 10498.2 10489.3 -7.26725 -79942.7 
174 3.47e-05 -0.0863626 -0.041914 10490.1 10482.2 -1.62584 -80031.4 
175 3.49e-05 0.00373702 0.0199756 10480.1 10488.8 -1.3201 -79550.2 
176 3.51e-05 0.299932 -0.00805052 10512.3 10485.3 0.100885 -79419.5 
177 3.53e-05 -0.200212 -0.0132156 10470.9 10487.5 -2.36078 -80891.4 
178 3.55e-05 -0.87346 -0.0249149 10494.7 10487.4 -4.51111 -80127.7 
179 3.57e-05 -1.16995 -0.0147484 10497.3 10486.8 -4.48026 -79306.1 
180 3.59e-05 -0.862595 -0.021446 10464.1 10483.5 -2.04905 -78597.5 
181 3.61e-05 -0.270464 0.00343959 10471.4 10489.2 -2.01425 -79368.7 
182 3.63e-05 -0.523768 -0.0167495 10441.6 10490.2 -4.91168 -79336.5 
183 3.65e-05 -0.3846 -0.00559158 10461.1 10488.9 -2.56273 -79715.2 
184 3.67e-05 -0.714626 -0.029749 10521.4 10485.4 -2.67528 -79039.6 
185 3.69e-05 -0.0544935 -0.0279871 10498.6 10483.5 -4.41277 -79834.4 
186 3.71e-05 0.0788914 0.0220405 10534.2 10486.7 0.721665 -80030.1 
187 3.73e-05 -0.383997 -0.0282659 10517.2 10487.1 -0.803067 -80824.1 
188 3.75e-05 0.552578 -0.0247267 10518.4 10487.3 -1.95878 -78910.3 
189 3.77e-05 0.304837 0.0108076 10500.1 10489.7 -1.57558 -78730.8 
190 3.79e-05 -0.315005 0.0239027 10571.6 10490.3 -2.08432 -79587.8 
191 3.81e-05 -0.125327 -0.0121951 10510.4 10488.8 -1.96689 -79146.8 
192 3.83e-05 0.178039 -0.0196778 10480.2 10487.2 -3.2342 -79343 
193 3.85e-05 -0.436562 0.0224724 10496 10487.8 -7.21286 -78473.9 
194 3.87e-05 0.144293 -0.00473952 10464.7 10483.7 -1.95714 -79274 
195 3.89e-05 0.504232 0.0121231 10511.6 10491.4 -0.226584 -77928 
196 3.91e-05 -0.112129 0.00761513 10530.6 10489.2 -0.288801 -78561.1 
197 3.93e-05 0.097761 -0.0135177 10508 10488 -1.12782 -79461 
198 3.95e-05 -0.0973094 0.00882138 10483.5 10486.4 -4.46899 -80944.7 
199 3.97e-05 -0.478567 -7.33443e-05 10520.1 10485.6 -0.23929 -80048.8 
200 3.99e-05 0.132578 0.0324704 10535.3 10490.3 -0.0619868 -78296.3 
