ITEM: TIMESTEP
200000
ITEM: NUMBER OF CELLS
200
ITEM: BOX BOUNDS pp ss pp
0 0.0001
0 4e-05
0 0.0001
ITEM: CELLS id yc f_vel[1] f_vel[2] f_mom[1] f_mom[2] f_mom[3] f_q[*] 
1 1e-07 0.20489 0.231276 10766.7 10793.5 1.51634 -80019.1 
2 3e-07 -0.446269 -0.201284 10752.9 10779.7 5.12775 -89877.6 
3 5e-07 -0.820104 0.203874 10774.1 10775.5 -0.96781 -87522.8 
4 7e-07 -0.269817 0.0209239 10763.4 10782.4 3.35644 -89270.3 
5 9e-07 -0.511518 0.0751479 10761.6 10788.9 -0.330421 -91379.5 
6 1.1e-06 -0.529305 0.131045 10745.3 10780 0.531311 -86609.4 
7 1.3e-06 -0.451561 0.197391 10768.8 10778.4 -0.840317 -91029.1 
8 1.5e-06 -0.352326 0.0876095 10771.3 10774.2 -3.26659 -88206.8 
9 1.7e-06 -0.271636 0.101962 10785 10787.1 -5.82836 -90447.6 
10 1.9e-06 -0.472302 0.028907 10769.7 10778 -4.57539 -90604.3 
11 2.1e-06 -0.707729 0.0828948 10757.1 10783.7 -4.50923 -91649.1 
12 2.3e-06 -0.329338 -0.0401784 10760.5 10780.9 3.20046 -88323.6 
13 2.5e-06 -0.20407 0.158342 10761.6 10785.8 -7.45354 -90379.2 
14 2.7e-06 -0.743232 0.0845601 10792 10782.5 6.85427 -89836.8 
15 2.9e-06 -0.371848 0.0904128 10792.1 10786.6 3.83714 -92186.3 
16 3.1e-06 -0.0731365 0.0643351 10794.4 10785.6 5.55687 -91204.4 
17 3.3e-06 -0.246822 0.0852435 10773.9 10790 -2.88109 -89605.2 
18 3.5e-06 -0.597932 0.0335357 10774.5 10786.2 -2.16173 -90482.2 
19 3.7e-06 -0.387966 0.0430924 10764.2 10787 -3.01127 -90720.6 
20 3.9e-06 0.124774 0.0896974 10780.2 10786.3 -3.79207 -88635.6 
21 4.1e-06 -0.569088 0.14977 10765.1 10789.6 2.22367 -92239.2 
22 4.3e-06 -0.366676 -0.00335779 10752.9 10784.7 3.15885 -92277.8 
23 4.5e-06 -0.927803 0.210576 10769.1 10787.1 4.3003 -90990.3 
24 4.7e-06 -0.924384 0.0745489 10767.8 10789.4 -1.60344 -90048.3 
25 4.9e-06 -0.447166 -0.0407451 10812.3 10787.8 3.55782 -89037.3 
26 5.1e-06 -0.247309 -0.00907186 10796.1 10778.3 4.25208 -88190.4 
27 5.3e-06 0.0814328 0.0424162 10761.8 10797.7 -8.50507 -90320.1 
28 5.5e-06 0.351766 0.0662848 10747.5 10785.3 7.47717 -91110 
29 5.7e-06 0.493593 0.00599343 10771.4 10783.2 2.29109 -90477.8 
30 5.9e-06 1.03034 0.0845152 10806.4 10785.7 2.19854 -90390.5 
31 6.1e-06 0.650005 0.096726 10787.9 10791.5 -0.799758 -91668.4 
32 6.3e-06 0.406723 0.00333346 10801.6 10785.4 3.75209 -86818.9 
33 6.5e-06 0.318191 0.114824 10793.4 10777.5 0.63815 -91549.9 
34 6.7e-06 0.0267541 -0.0869774 10781.9 10782.3 5.73085 -89872.4 
35 6.9e-06 0.48644 0.0196248 10803.8 10788.3 -3.50205 -91068.9 
36 7.1e-06 0.870751 0.0268118 10781.8 10781.9 4.19052 -89951.4 
37 7.3e-06 0.350204 -0.0067601 10835.7 10784.9 -3.17323 -87786.7 
38 7.5e-06 0.771646 -0.0158989 10832.9 10789.8 -0.703393 -90049.4 
39 7.7e-06 -0.0160726 0.0760378 10816.9 10785.8 -1.63966 -91282.5 
40 7.9e-06 0.0608109 0.104645 10826.3 10790.8 -3.31507 -90437.1 
41 8.1e-06 0.404946 0.0050161 10795.3 10798.1 -7.81241 -87204.6 
42 8.3e-06 0.318025 0.0808094 10759.6 10787.1 0.598223 -89042 
43 8.5e-06 -0.021873 0.0921786 10751 10777 -1.06547 -92863.2 
44 8.7e-06 -0.615409 -0.11904 10769 10788.6 -0.867858 -88656.8 
45 8.9e-06 -0.835008 0.15094 10755.1 10786.4 1.31556 -88326.1 
46 9.1e-06 -0.124282 -0.00305426 10783.8 10788.3 4.23009 -87847.9 
47 9.3e-06 -0.418439 0.0589463 10768.9 10775.9 -0.413051 -88770.1 
48 9.5e-06 -0.168483 -0.0859694 10777.6 10785 -0.877272 -89531.3 
49 9.7e-06 -0.177534 0.0839798 10803.5 10784.4 -0.448122 -89676.3 
50 9.9e-06 0.0485157 0.0265577 10783.4 10790.6 0.926104 -89233.2 
51 1.01e-05 0.288751 0.182187 10798.6 10787.5 -0.520343 -90623.6 
52 1.03e-05 0.00360751 0.0775708 10751.6 10790.4 0.770906 -89691 
53 1.05e-05 -0.51351 0.102124 10763 10781.6 -1.3491 -91088.2 
54 1.07e-05 -0.308712 -0.0709324 10763.2 10790.1 -5.49724 -89482.7 
55 1.09e-05 -0.18375 0.0130374 10783.1 10783.8 7.58956 -89720 
56 1.11e-05 -0.476582 0.0517144 10783.7 10792.1 -0.317627 -91743.7 
57 1.13e-05 0.0760161 0.16566 10751.6 10789 -3.90857 -89951.4 
58 1.15e-05 -0.0190866 0.00189908 10740.1 10790.2 4.06665 -89356.4 
59 1.17e-05 0.375074 0.078414 10778.2 10784.7 -4.57927 -87558.8 
60 1.19e-05 0.62378 -0.0725223 10766.4 10787.6 -1.79056 -89589.9 
61 1.21e-05 0.143405 0.0361231 10742.8 10790.8 3.51908 -88756.8 
62 1.23e-05 0.47269 0.0449392 10814.1 10783.3 -1.34533 -89769 
63 1.25e-05 0.532895 0.0921706 10786.9 10775 0.691004 -91669.4 
64 1.27e-05 0.201805 -0.00604875 10786 10783.6 -0.0850813 -88288.3 
65 1.29e-05 0.00209059 0.0645205 10795.5 10793.8 0.100432 -91634 
66 1.31e-05 0.347632 0.0890227 10779.5 10792.9 4.44897 -90572.6 
67 1.33e-05 0.038675 0.0424278 10768.4 10792.5 -7.30976 -89546.9 
68 1.35e-05 0.159278 0.00830502 10784.6 10786 3.54834 -89455 
69 1.37e-05 0.0356729 -0.140037 10759.5 10787.6 -3.2336 -87035 
70 1.39e-05 -0.582854 -0.0139932 10762.2 10787.4 -2.24276 -88003.8 
71 1.41e-05 -0.251261 0.0164306 10786.9 10782.1 0.71482 -88320.6 
72 1.43e-05 -0.336254 0.031125 10798.7 10783 1.27732 -88399.8 
73 1.45e-05 -0.293031 -0.021415 10758.3 10788.8 1.8167 -90582.5 
74 1.47e-05 -0.502269 -0.0245762 10748.3 10790.7 0.886423 -89988.6 
75 1.49e-05 -0.816899 0.131675 10771 10786.3 -6.278 -90044.7 
76 1.51e-05 -0.566609 0.0138766 10765.9 10789.9 0.778871 -88104.4 
77 1.53e-05 0.106855 0.137152 10740.1 10788.8 9.40553 -89369.2 
78 1.55e-05 -0.329542 0.0318948 10783 10789.1 2.81299 -88685.5 
79 1.57e-05 0.18737 -0.0379311 10775.3 10793.1 1.82815 -90490 
80 1.59e-05 -0.412834 -0.0435911 10794.4 10790.9 4.56093 -90456.9 
81 1.61e-05 -0.484301 0.117057 10804.2 10791.3 -7.98491 -89304.6 
82 1.63e-05 -0.618572 0.0228041 10775.5 10791 -4.39465 -90390.7 
83 1.65e-05 -0.245616 0.0350307 10739.1 10788.4 -1.83671 -90632.6 
84 1.67e-05 -0.365217 0.0740987 10734.1 10788.2 -3.37475 -88883.5 
85 1.69e-05 -0.226829 -0.0118195 10723.8 10785.6 5.39592 -88288 
86 1.71e-05 -0.590147 0.0405599 10764.3 10789.8 4.05432 -88887.3 
87 1.73e-05 -0.233857 -0.014203 10771.1 10794.9 1.15859 -90987.8 
88 1.75e-05 -0.0290921 0.101645 10774.8 10785.3 -8.25687 -91404.5 
89 1.77e-05 -0.130437 0.0354421 10770.8 10784.8 -0.812978 -87527.6 
90 1.79e-05 0.124653 0.0620054 10769.8 10784.8 -1.39875 -89706.9 
91 1.81e-05 0.0544939 0.0428568 10770.5 10785.2 -1.59499 -90987.1 
92 1.83e-05 -0.0736827 -0.0585161 10760.6 10789.2 -1.54376 -87573.4 
93 1.85e-05 -0.251353 -0.0433704 10769 10786.2 -0.297936 -90496.7 
94 1.87e-05 -0.623092 -0.122753 10779.5 10784.4 1.87786 -87849.4 
95 1.89e-05 -0.435031 -0.0213819 10743.4 10789.8 -1.74068 -89835.9 
96 1.91e-05 -0.700327 0.0913802 10755.4 10787.7 0.708634 -93022.9 
97 1.93e-05 -0.574642 0.108128 10786.1 10781.5 0.00200524 -91826.5 
98 1.95e-05 -0.321745 0.0482874 10775.6 10792.6 2.07505 -91591.7 
99 1.97e-05 -0.803033 0.0274562 10754.4 10792.3 2.28416 -89382.8 
100 1.99e-05 -1.37128 0.0204158 10767.1 10787 7.20072 -90565.9 
101 2.01e-05 -0.802583 -0.0616738 10775.7 10793.1 -5.53923 -90451.6 
102 2.03e-05 0.0757754 0.0603884 10752.3 10779.4 1.38799 -90187.3 
103 2.05e-05 -0.284396 0.0034596 10758.5 10788.2 -1.61572 -91162.4 
104 2.07e-05 -0.495453 0.119744 10773.2 10791 1.63366 -93293.5 
105 2.09e-05 -0.280066 0.0579412 10778.1 10785.6 -2.37078 -91129.7 
106 2.11e-05 -0.662818 0.0472845 10765.1 10786.3 2.95366 -89045.6 
107 2.13e-05 0.134534 -0.00913289 10724.7 10792.4 -0.825984 -89943.2 
108 2.15e-05 0.0419689 0.105883 10771 10793.8 -5.10533 -91421.8 
109 2.17e-05 0.0774845 0.059441 10763.4 10787.2 -1.31813 -91955.7 
110 2.19e-05 0.055648 0.0339291 10756.6 10788.5 0.380911 -90027.1 
111 2.21e-05 0.533855 0.0939336 10785.2 10792.9 2.72951 -89783.8 
112 2.23e-05 -0.156799 -0.0296192 10782.9 10791.3 3.63932 -90370.5 
113 2.25e-05 0.158203 -0.0129269 10794.4 10789.9 -2.92894 -90074.2 
114 2.27e-05 0.326972 -0.0526277 10779.6 10785.6 0.611654 -92456.4 
115 2.29e-05 0.766382 0.0291976 10776.2 10794 3.59539 -92653.2 
116 2.31e-05 0.62632 0.121855 10766.6 10795.4 10.8115 -92418.8 
117 2.33e-05 0.424203 -0.0179602 10733.3 10786.4 2.80649 -89265.7 
118 2.35e-05 0.100457 0.0300431 10748.8 10790.7 2.05896 -89176.8 
119 2.37e-05 0.222803 0.051638 10793.3 10790.6 -5.994 -91334.7 
120 2.39e-05 -0.364057 0.136411 10778.8 10790.7 0.00716039 -91472.5 
121 2.41e-05 -0.0793581 -0.111114 10810.6 10796.2 0.992825 -91402 
122 2.43e-05 -0.281099 0.0106883 10768.1 10784.2 -1.36931 -89872.1 
123 2.45e-05 -0.635257 0.0153078 10785.5 10785.6 -0.0441409 -91716.7 
124 2.47e-05 -0.587984 0.0553155 10787.5 10794 -0.230555 -92743.1 
125 2.49e-05 -0.069962 -0.018647 10765.4 10793.3 -4.82559 -91578.1 
126 2.51e-05 -0.427618 -0.0780386 10775.3 10789.9 4.42164 -89802.7 
127 2.53e-05 0.0899501 -0.0376948 10771.7 10784.4 -0.445142 -90327.3 
128 2.55e-05 0.111765 -0.0396913 10818.9 10788 -1.63402 -90631.6 
129 2.57e-05 -0.476248 0.0249647 10760.6 10792.3 -4.75603 -92028.1 
130 2.59e-05 -0.482778 0.0661456 10779.5 10789.7 -5.88002 -92821.5 
131 2.61e-05 -0.319359 -0.0136971 10802.2 10788.1 -1.00549 -88700.3 
132 2.63e-05 -0.68197 -0.0450491 10773.4 10791.6 4.06839 -89619.6 
133 2.65e-05 -1.17114 0.0608794 10761.3 10791.2 -3.87496 -88703.8 
134 2.67e-05 -0.883629 0.0315002 10766.8 10789.9 2.17038 -89669.2 
135 2.69e-05 -0.826675 0.0343351 10769.6 10795.2 -0.476029 -91547.2 
136 2.71e-05 -0.625426 -0.154057 10801 10785.8 -0.721616 -88672.4 
137 2.73e-05 -0.448145 -0.0143386 10790.1 10786.5 -0.857646 -88697.4 
138 2.75e-05 0.0548764 0.0229616 10815.6 10786.3 -0.539602 -91490.3 
139 2.77e-05 -0.102899 0.0904712 10767.8 10788.1 -4.76069 -91095.1 
140 2.79e-05 -0.590389 -0.0573836 10762.6 10791.6 0.388661 -90652.5 
141 2.81e-05 0.446974 0.142814 10795.7 10787.5 -3.25436 -92247.8 
142 2.83e-05 0.131203 0.0401225 10773.9 10793.2 -3.0415 -91734.9 
143 2.85e-05 -0.0344864 0.000459043 10772.9 10791.1 0.0711432 -90529 
144 2.87e-05 0.780244 0.136636 10749.4 10793.3 -0.177163 -90534.8 
145 2.89e-05 0.766018 0.0678552 10779.2 10792.8 -3.76089 -92494.1 
146 2.91e-05 0.165594 -0.076472 10796.2 10795.7 -5.5618 -87903.7 
147 2.93e-05 0.773047 0.0248612 10800.7 10788.6 8.47972 -90701.6 
148 2.95e-05 0.286205 0.0301058 10812.9 10787.3 4.93553 -92542.9 
149 2.97e-05 0.140674 0.0527069 10817.6 10792.9 3.73136 -91443.2 
150 2.99e-05 0.0885865 0.0251233 10791.4 10789.6 -2.97709 -91561 
151 3.01e-05 0.53776 0.056929 10754.8 10796.2 5.45979 -90627 
152 3.03e-05 0.227905 -0.0306352 10759 10781.4 -4.05082 -90723.6 
153 3.05e-05 -0.294409 0.0360085 10747.5 10799.5 1.52383 -90694.9 
154 3.07e-05 -0.0555686 0.0510518 10747.7 10794.2 2.54433 -90592.7 
155 3.09e-05 0.806516 -0.03453 10765.9 10789.6 -0.360507 -88646.4 
156 3.11e-05 0.60683 0.0805945 10777.6 10789.6 1.68456 -92098.2 
157 3.13e-05 0.214016 0.108515 10741.5 10787.7 2.18598 -89245.9 
158 3.15e-05 0.536294 -0.0274942 10765.9 10790.8 0.149196 -90081.1 
159 3.17e-05 -0.0659493 0.108249 10742.4 10794.1 2.65024 -91444.7 
160 3.19e-05 0.324617 -0.0094578 10786.4 10793 -1.98835 -91547.2 
161 3.21e-05 0.158593 0.0385259 10781.1 10792.4 0.563037 -90046.1 
162 3.23e-05 0.837435 0.0297587 10784.5 10792.3 2.91553 -91461.8 
163 3.25e-05 0.860085 0.0418525 10795.4 10789.3 1.75867 -90354.5 
164 3.27e-05 0.464368 0.0356462 10788 10789.7 7.45954 -94080.3 
165 3.29e-05 0.901712 0.138131 10812.4 10792.9 3.13603 -93445.6 
166 3.31e-05 0.175617 0.0873207 10753.1 10788 3.39622 -93181.3 
167 3.33e-05 0.885328 0.0182513 10748.2 10794.6 5.43917 -90729.1 
168 3.35e-05 0.383268 0.130945 10763.5 10793.3 1.10147 -90295.4 
169 3.37e-05 0.951864 -0.0118276 10755.1 10791.4 5.16069 -93996.5 
170 3.39e-05 0.576068 0.192775 10748.6 10797.6 -1.45701 -89600 
171 3.41e-05 0.418236 -0.119372 10793.7 10788.8 3.78203 -88834.7 
172 3.43e-05 1.05338 -0.0671988 10810.9 10789.5 -2.78904 -89442.2 
173 3.45e-05 1.05164 0.0249085 10794 10795 3.92489 -87747.4 
174 3.47e-05 1.04875 0.0179705 10809.1 10791.5 2.87061 -90846.2 
175 3.49e-05 0.324905 0.0221577 10776.6 10793.2 -0.537262 -92853.5 
176 3.51e-05 1.23064 0.00604179 10784.1 10790.5 3.45344 -89719.1 
177 3.53e-05 0.624018 0.00166317 10782.7 10788.6 5.01617 -90524.8 
178 3.55e-05 0.71286 -0.0550575 10773.2 10802.6 0.608644 -88109.6 
179 3.57e-05 0.666777 0.0606577 10788.4 10797.4 1.73935 -91535.2 
180 3.59e-05 1.02168 0.0725141 10808.9 10789 -1.29629 -91286.9 
181 3.61e-05 0.236531 0.118338 10770.6 10797.5 6.20444 -90537.1 
182 3.63e-05 0.0632796 0.012217 10763.2 10791.7 1.06553 -90444.4 
183 3.65e-05 0.152103 0.0899298 10797.3 10784.4 0.923002 -91435.8 
184 3.67e-05 1.06705 -0.0144607 10788.2 10795.3 4.31219 -92395.6 
185 3.69e-05 0.676174 0.0874218 10811.5 10793 -3.03898 -90553.2 
186 3.71e-05 0.946151 0.022944 10737.1 10791.3 0.738102 -90846.5 
187 3.73e-05 1.23483 0.0269041 10820.3 10789.2 2.79594 -87531.8 
188 3.75e-05 0.857317 -0.072073 10804.8 10788.4 0.758368 -90402.4 
189 3.77e-05 0.728112 0.071055 10778.2 10797.8 2.55425 -91526.5 
190 3.79e-05 0.613181 0.0253189 10788.9 10789.6 4.7237 -89820 
191 3.81e-05 0.391569 -0.182247 10763.1 10792.1 0.0769131 -86604.5 
192 3.83e-05 0.92368 0.0013021 10803.2 10792.8 -1.27134 -91698.4 
193 3.85e-05 0.685275 0.0204896 10836 10793.9 6.57437 -90262.8 
194 3.87e-05 1.58605 -0.0869128 10832.9 10797 -2.75644 -89885.5 
195 3.89e-05 0.847753 0.124288 10802.6 10796.8 -0.196495 -91453.1 
196 3.91e-05 0.493889 -0.0929208 10817.4 10793.4 3.60144 -88912.3 
197 3.93e-05 0.783726 0.0106826 10812.9 10797.6 4.60726 -88587.2 
198 3.95e-05 0.242163 -0.053389 10812.5 10792.8 2.73804 -88630.2 
199 3.97e-05 0.919762 0.045004 10848.4 10791.3 6.27044 -90795.8 
200 3.99e-05 0.557066 0.0298704 10803.5 10802.7 -0.295153 -93640 
