ITEM: TIMESTEP
0
ITEM: NUMBER OF CELLS
1
ITEM: BOX BOUNDS pp pp pp
0 0.0001
0 4e-05
0 0.0001
ITEM: CELLS f_1[1] f_1[2] 
0 0 
