ITEM: TIMESTEP
6000000
ITEM: NUMBER OF CELLS
100
ITEM: BOX BOUNDS pp ss pp
0 0.0001
0 4e-05
0 0.0001
ITEM: CELLS id yc f_rho[1] f_rho[2] f_state[1] f_state[2] 
1 2e-07 107.158 2.75595e+22 251.347 95.6375 
2 6e-07 104.705 2.74805e+22 253.854 96.3147 
3 1e-06 104.776 2.74656e+22 254.499 96.5071 
4 1.4e-06 104.423 2.73522e+22 254.902 96.2606 
5 1.8e-06 104.343 2.72229e+22 256.477 96.3975 
6 2.2e-06 103.552 2.65506e+22 260.456 95.4758 
7 2.6e-06 103.964 2.65736e+22 259.87 95.3433 
8 3e-06 104.212 2.63768e+22 260.275 94.7845 
9 3.4e-06 104.41 2.67823e+22 260.44 96.303 
10 3.8e-06 104.159 2.65711e+22 262.468 96.2875 
11 4.2e-06 104.071 2.63963e+22 263.9 96.1756 
12 4.6e-06 104.518 2.65793e+22 264.952 97.2287 
13 5e-06 104.83 2.63888e+22 264.71 96.4434 
14 5.4e-06 104.456 2.60059e+22 268.419 96.3759 
15 5.8e-06 104.509 2.59916e+22 268.225 96.2534 
16 6.2e-06 103.542 2.61773e+22 266.079 96.1654 
17 6.6e-06 104.398 2.64239e+22 263.335 96.0703 
18 7e-06 104.239 2.64311e+22 262.896 95.9363 
19 7.4e-06 103.691 2.586e+22 267.567 95.5311 
20 7.8e-06 103.5 2.59679e+22 266.158 95.4246 
21 8.2e-06 104.116 2.64433e+22 264.285 96.4877 
22 8.6e-06 104.018 2.57794e+22 269.732 96.0038 
23 9e-06 103.803 2.56799e+22 268.375 95.152 
24 9.4e-06 103.382 2.57762e+22 270.776 96.3637 
25 9.8e-06 103.916 2.61171e+22 267.046 96.2928 
26 1.02e-05 103.76 2.58633e+22 270.554 96.6096 
27 1.06e-05 103.809 2.56859e+22 271.893 96.4221 
28 1.1e-05 103.185 2.56037e+22 271.854 96.0995 
29 1.14e-05 103.915 2.57754e+22 271.633 96.6655 
30 1.18e-05 103.507 2.55064e+22 274.449 96.6485 
31 1.22e-05 102.923 2.5044e+22 277.448 95.9329 
32 1.26e-05 103.605 2.51438e+22 275.498 95.6383 
33 1.3e-05 104.16 2.53754e+22 274.375 96.126 
34 1.34e-05 103.739 2.50963e+22 276.931 95.9544 
35 1.38e-05 103.696 2.50824e+22 278.596 96.4776 
36 1.42e-05 104.035 2.50078e+22 278.789 96.2575 
37 1.46e-05 103.15 2.48963e+22 279.891 96.2071 
38 1.5e-05 103.489 2.47815e+22 280.173 95.8598 
39 1.54e-05 103.73 2.484e+22 279.254 95.7714 
40 1.58e-05 103.558 2.45884e+22 280.485 95.219 
41 1.62e-05 103.593 2.4632e+22 284.409 96.7222 
42 1.66e-05 104.123 2.45953e+22 282 95.7601 
43 1.7e-05 104.269 2.46712e+22 282.356 96.177 
44 1.74e-05 103.849 2.46751e+22 281.523 95.9081 
45 1.78e-05 103.528 2.45192e+22 283.419 95.9439 
46 1.82e-05 103.894 2.44298e+22 287.015 96.8071 
47 1.86e-05 104.224 2.44757e+22 284.809 96.2438 
48 1.9e-05 103.483 2.42195e+22 287.192 96.0334 
49 1.94e-05 103.203 2.43128e+22 287.411 96.4765 
50 1.98e-05 103.579 2.43998e+22 287.415 96.8231 
51 2.02e-05 103.762 2.43863e+22 287.16 96.6838 
52 2.06e-05 103.008 2.42838e+22 287.931 96.5356 
53 2.1e-05 102.974 2.44011e+22 289.883 97.6597 
54 2.14e-05 103.325 2.43353e+22 287.295 96.5266 
55 2.18e-05 104.146 2.43568e+22 287.962 96.836 
56 2.22e-05 104.424 2.45801e+22 288.87 98.0323 
57 2.26e-05 103.654 2.42319e+22 290.735 97.2677 
58 2.3e-05 103.553 2.45498e+22 289.34 98.0708 
59 2.34e-05 103.556 2.45606e+22 290.931 98.6535 
60 2.38e-05 104.281 2.48321e+22 289.638 99.3007 
61 2.42e-05 103.657 2.4419e+22 291.278 98.2016 
62 2.46e-05 103.423 2.43774e+22 292.241 98.3586 
63 2.5e-05 103.562 2.41749e+22 294.088 98.1579 
64 2.54e-05 103.759 2.40794e+22 293.545 97.5897 
65 2.58e-05 103.821 2.39328e+22 293.078 96.8413 
66 2.62e-05 104.393 2.39549e+22 294.215 97.3066 
67 2.66e-05 103.732 2.39282e+22 292.456 96.6171 
68 2.7e-05 103.569 2.38691e+22 293.109 96.5934 
69 2.74e-05 103.826 2.41197e+22 291.418 97.0448 
70 2.78e-05 102.962 2.38331e+22 292.96 96.3991 
71 2.82e-05 104.412 2.41441e+22 290.074 96.6946 
72 2.86e-05 103.322 2.36571e+22 294.525 96.1984 
73 2.9e-05 103.843 2.38191e+22 296.142 97.3888 
74 2.94e-05 103.032 2.36267e+22 296.406 96.6882 
75 2.98e-05 103.728 2.37135e+22 298.58 97.7552 
76 3.02e-05 103.137 2.35736e+22 299.653 97.5276 
77 3.06e-05 103.544 2.37635e+22 298.189 97.8331 
78 3.1e-05 103.094 2.31255e+22 302.746 96.6612 
79 3.14e-05 103.578 2.32864e+22 301.352 96.8857 
80 3.18e-05 102.869 2.3194e+22 307.104 98.3433 
81 3.22e-05 103.045 2.33465e+22 302.796 97.6012 
82 3.26e-05 103.109 2.32231e+22 304.349 97.5833 
83 3.3e-05 102.983 2.28904e+22 306.354 96.8186 
84 3.34e-05 103.053 2.27686e+22 312.304 98.1744 
85 3.38e-05 102.972 2.26713e+22 308.83 96.6672 
86 3.42e-05 103.47 2.27784e+22 310.807 97.7456 
87 3.46e-05 103.221 2.26517e+22 310.319 97.0491 
88 3.5e-05 103.06 2.263e+22 312.035 97.4924 
89 3.54e-05 103.982 2.29702e+22 310.11 98.3474 
90 3.58e-05 103.32 2.28863e+22 310.451 98.0961 
91 3.62e-05 104.247 2.30561e+22 308.768 98.288 
92 3.66e-05 103.71 2.31594e+22 309.572 98.9857 
93 3.7e-05 103.379 2.27811e+22 312.463 98.278 
94 3.74e-05 103.49 2.28873e+22 313.149 98.9527 
95 3.78e-05 103.022 2.28909e+22 316.785 100.118 
96 3.82e-05 102.53 2.25994e+22 316.403 98.7237 
97 3.86e-05 103.06 2.23245e+22 319.459 98.4647 
98 3.9e-05 103.002 2.22809e+22 320.191 98.4976 
99 3.94e-05 102.614 2.23465e+22 317.542 97.9702 
100 3.98e-05 102.235 2.20496e+22 320.131 97.4567 
