ITEM: TIMESTEP
6000000
ITEM: NUMBER OF CELLS
100
ITEM: BOX BOUNDS pp ss pp
0 0.0001
0 4e-05
0 0.0001
ITEM: CELLS id yc f_vel[1] f_vel[2] f_vel[3] 
1 2e-07 -0.887803 0.0278646 0.102319 
2 6e-07 -0.26852 0.0877591 -0.534292 
3 1e-06 1.80464 0.0840495 0.885484 
4 1.4e-06 -0.57587 0.0378185 1.17077 
5 1.8e-06 -1.46628 0.0495336 -0.504278 
6 2.2e-06 -1.09847 -0.0191224 0.167796 
7 2.6e-06 4.6187 0.0180571 -0.196584 
8 3e-06 0.996028 -0.068486 -1.91895 
9 3.4e-06 -0.823742 -0.0902439 -1.32927 
10 3.8e-06 -0.338927 0.263512 0.811781 
11 4.2e-06 -2.29289 0.0770201 1.86002 
12 4.6e-06 -2.6962 0.346029 -1.23843 
13 5e-06 -0.961142 0.168571 0.701994 
14 5.4e-06 -0.247852 0.419802 1.04483 
15 5.8e-06 1.28439 0.477314 3.68177 
16 6.2e-06 -2.11254 0.392068 2.19819 
17 6.6e-06 -2.34481 0.511596 -0.910966 
18 7e-06 -0.620298 0.697843 -0.336485 
19 7.4e-06 -1.28587 0.395474 -4.47435 
20 7.8e-06 1.42542 0.657929 -1.00227 
21 8.2e-06 3.37398 0.338006 -1.76979 
22 8.6e-06 1.84054 0.480699 -2.67629 
23 9e-06 1.13798 0.650828 -0.195722 
24 9.4e-06 3.04894 0.848423 1.91232 
25 9.8e-06 4.92683 0.569881 0.981554 
26 1.02e-05 2.25482 0.528168 -0.596276 
27 1.06e-05 -3.39335 0.737192 -1.97755 
28 1.1e-05 -1.88318 0.797317 -2.573 
29 1.14e-05 -3.35007 0.562977 -3.63865 
30 1.18e-05 -1.79051 0.671209 -1.77712 
31 1.22e-05 -1.45962 0.787951 0.685785 
32 1.26e-05 1.46464 0.750076 -0.843716 
33 1.3e-05 -2.02031 0.828697 -1.91492 
34 1.34e-05 0.59949 0.678339 -5.37067 
35 1.38e-05 0.260412 0.942807 -1.85533 
36 1.42e-05 0.442944 0.778513 -2.28981 
37 1.46e-05 2.0042 0.916827 -0.814956 
38 1.5e-05 1.45033 0.696947 -2.32365 
39 1.54e-05 4.68185 0.698794 -3.15057 
40 1.58e-05 2.76987 0.771728 -0.108634 
41 1.62e-05 4.07273 0.658778 -1.98121 
42 1.66e-05 4.78967 0.658359 0.823034 
43 1.7e-05 0.468484 0.703692 -2.39419 
44 1.74e-05 3.80433 0.595461 -1.65828 
45 1.78e-05 4.86509 0.905796 -0.410435 
46 1.82e-05 6.08417 0.506899 -3.20348 
47 1.86e-05 1.45701 0.808703 -4.96462 
48 1.9e-05 4.81372 0.702147 -3.11156 
49 1.94e-05 2.59345 0.840695 -0.464843 
50 1.98e-05 3.79484 0.543146 -0.900129 
51 2.02e-05 3.62251 0.45074 -2.50117 
52 2.06e-05 3.10958 0.548475 -1.94656 
53 2.1e-05 4.44535 0.471696 -1.74269 
54 2.14e-05 1.1505 0.437752 -0.451145 
55 2.18e-05 3.7225 0.367556 -1.82916 
56 2.22e-05 3.83537 0.253167 -4.28144 
57 2.26e-05 3.22039 0.513644 -0.710632 
58 2.3e-05 5.18558 0.442949 -2.56138 
59 2.34e-05 4.7289 0.329381 -0.0360095 
60 2.38e-05 3.69559 -0.138084 -2.33538 
61 2.42e-05 5.0594 0.230388 0.271147 
62 2.46e-05 0.96279 -0.15666 1.66161 
63 2.5e-05 6.09949 -0.114246 -1.39326 
64 2.54e-05 5.63061 0.140012 -3.09118 
65 2.58e-05 6.43508 -0.187084 -0.890553 
66 2.62e-05 6.78364 -0.0379828 0.471871 
67 2.66e-05 6.2032 -0.424526 -3.23818 
68 2.7e-05 7.94895 0.0826853 2.12736 
69 2.74e-05 6.63876 0.251797 0.734097 
70 2.78e-05 6.59064 -0.0583795 -1.85336 
71 2.82e-05 9.31378 -0.18487 -3.22318 
72 2.86e-05 6.18478 0.224686 -1.39243 
73 2.9e-05 8.94757 -0.132436 2.48757 
74 2.94e-05 7.6201 0.202846 -1.7345 
75 2.98e-05 4.92522 0.252526 1.66296 
76 3.02e-05 6.98448 0.180318 1.25042 
77 3.06e-05 5.30955 0.124075 2.23664 
78 3.1e-05 3.39383 0.486705 0.330582 
79 3.14e-05 3.38962 0.322308 -0.131252 
80 3.18e-05 0.544716 0.267617 1.28648 
81 3.22e-05 2.22767 0.185409 -1.18918 
82 3.26e-05 7.08604 0.336978 -1.23786 
83 3.3e-05 7.70167 0.155436 3.12544 
84 3.34e-05 5.0984 0.37343 3.96692 
85 3.38e-05 5.70867 0.361608 -0.253004 
86 3.42e-05 7.09366 0.422417 3.03044 
87 3.46e-05 4.84065 0.302664 3.50078 
88 3.5e-05 5.52798 0.142427 1.11848 
89 3.54e-05 5.85197 0.335999 1.51805 
90 3.58e-05 4.4627 0.132434 1.55179 
91 3.62e-05 4.57251 0.00717005 0.122327 
92 3.66e-05 2.01948 0.0390023 2.83478 
93 3.7e-05 1.01489 -0.0897154 -1.15497 
94 3.74e-05 3.90659 -0.116091 -1.60123 
95 3.78e-05 2.14708 -0.219847 -1.59616 
96 3.82e-05 0.921945 -0.415393 -2.09653 
97 3.86e-05 0.219669 -0.250584 -4.45138 
98 3.9e-05 0.913172 -0.282815 -2.78961 
99 3.94e-05 2.22003 0.0120771 -2.66011 
100 3.98e-05 0.555087 0.199868 -1.77289 
