ITEM: TIMESTEP
6000000
ITEM: NUMBER OF CELLS
100
ITEM: BOX BOUNDS pp ss pp
0 0.0001
0 4e-05
0 0.0001
ITEM: CELLS id yc f_mom[1] f_mom[2] f_mom[3] f_mom[4] f_mom[5] f_mom[6] f_q[1] f_q[2] f_q[3] 
1 2e-07 93.5939 97.6776 95.6409 -0.576803 0.271921 0.267827 -69.88 -10731.4 132.089 
2 6e-07 94.8744 97.6286 96.4412 -0.382438 0.344289 1.09076 -77.2656 -10771.7 158.465 
3 1e-06 94.9766 97.517 97.0276 -0.507273 0.277495 0.636746 -398.772 -10709.9 89.4898 
4 1.4e-06 95.2425 97.575 95.9643 -0.554801 0.319656 0.395224 -529.82 -10734.3 -421.009 
5 1.8e-06 94.6095 97.4791 97.1038 -0.633679 0.394067 -0.122836 -8.84458 -10714.4 -223.188 
6 2.2e-06 93.9086 97.5868 94.932 -0.602655 0.335647 0.279826 154.392 -10709.5 -283.266 
7 2.6e-06 93.9645 97.4568 94.6085 -0.584591 0.406974 0.197118 -196.425 -10743 -287.352 
8 3e-06 92.973 97.4275 93.9531 -0.493161 0.301562 1.06161 110.085 -10701.8 55.4835 
9 3.4e-06 95.4439 97.4716 95.9936 -0.53359 0.416763 0.586655 547.14 -10698.3 309.078 
10 3.8e-06 95.6636 97.4777 95.7211 -0.563744 0.343681 0.207687 385.164 -10753.6 -280.416 
11 4.2e-06 95.6349 97.4216 95.4702 -0.554763 0.228025 -1.45884 29.3963 -10751.8 -335.437 
12 4.6e-06 97.2805 97.5691 96.8365 -0.584935 0.328637 -1.05806 143.171 -10773.4 181.48 
13 5e-06 96.1145 97.5365 95.6792 -0.558789 0.227597 -0.963416 -155.769 -10766.4 -83.6383 
14 5.4e-06 95.8072 97.5249 95.7955 -0.603488 0.359553 -0.0367009 -64.863 -10804.4 -540.272 
15 5.8e-06 95.9636 97.5325 95.2642 -0.596369 0.225952 0.176279 -159.154 -10802.9 -218.307 
16 6.2e-06 95.8469 97.4302 95.2191 -0.645835 0.40752 -0.403178 306.657 -10778.8 -7.13696 
17 6.6e-06 95.8974 97.4362 94.8774 -0.684083 0.278785 -0.275331 393.372 -10808.7 135.694 
18 7e-06 94.7843 97.4677 95.5569 -0.665581 0.228611 -0.00419899 505.558 -10822.3 -576.846 
19 7.4e-06 93.0595 97.4332 96.1005 -0.671827 0.293836 -1.07289 495.687 -10757.6 -345.946 
20 7.8e-06 94.9293 97.3978 93.9465 -0.714893 0.248328 0.31988 132.522 -10785.2 104.421 
21 8.2e-06 96.1188 97.2574 96.0869 -0.762302 0.237771 0.374072 -489.987 -10726.5 301.802 
22 8.6e-06 95.6774 97.2919 95.0421 -0.639584 0.210648 0.858525 -354.109 -10754.2 709.638 
23 9e-06 93.6878 97.3594 94.4089 -0.744608 0.217011 -0.428282 -258.453 -10800.7 672.597 
24 9.4e-06 95.668 97.3464 96.0768 -0.59967 0.140146 0.106575 -311.879 -10821.4 987.948 
25 9.8e-06 95.8539 97.4439 95.5807 -0.644291 0.200131 -0.157451 -506.601 -10774.2 396.442 
26 1.02e-05 96.8716 97.3465 95.6108 -0.719584 0.0831124 -0.507776 -150.412 -10751.2 147.306 
27 1.06e-05 96.8194 97.2268 95.2202 -0.673243 0.136237 1.13425 -60.3301 -10753.5 212.392 
28 1.1e-05 95.8652 97.2657 95.1674 -0.691853 0.142957 1.02062 -288.17 -10794.3 269.99 
29 1.14e-05 97.5028 97.3196 95.1739 -0.778497 0.145581 -0.714025 -270.527 -10773.4 377.78 
30 1.18e-05 96.4088 97.335 96.2015 -0.755455 0.167225 0.270498 -339.22 -10784.4 300.981 
31 1.22e-05 95.8517 97.3507 94.5961 -0.688881 0.193461 0.502645 -264.705 -10795.6 -18.6416 
32 1.26e-05 95.6239 97.2794 94.0115 -0.574408 0.20976 1.12462 -674.383 -10806.3 168.899 
33 1.3e-05 95.8675 97.3617 95.1487 -0.69256 0.202498 0.416961 74.9123 -10782.1 59.8296 
34 1.34e-05 95.1009 97.3641 95.3982 -0.669068 0.275422 -0.167945 -40.5327 -10777 162.721 
35 1.38e-05 96.3259 97.322 95.7848 -0.707726 0.0880406 1.19378 -342.711 -10816.1 -317.78 
36 1.42e-05 96.0953 97.3545 95.3228 -0.670169 0.357626 0.937934 40.6264 -10795.8 -406.817 
37 1.46e-05 95.4141 97.27 95.9372 -0.654671 0.166363 0.955732 253.84 -10768.4 -196.495 
38 1.5e-05 95.0287 97.3249 95.2259 -0.656513 0.304836 0.826666 3.01112 -10737.6 67.697 
39 1.54e-05 94.5753 97.3237 95.4153 -0.620817 0.266343 -0.298556 42.0791 -10763.1 -19.6709 
40 1.58e-05 93.7266 97.291 94.6393 -0.60528 0.179469 0.548838 -156.509 -10747.6 -36.4981 
41 1.62e-05 96.1732 97.3193 96.6742 -0.64612 0.231081 -0.746922 -174.514 -10723.4 -158.91 
42 1.66e-05 94.2931 97.3578 95.6294 -0.642444 0.209506 0.311888 -416.608 -10750.6 -138.639 
43 1.7e-05 95.0507 97.3066 96.1737 -0.738837 0.228627 0.718016 149.094 -10739 -143.241 
44 1.74e-05 94.3713 97.282 96.0709 -0.717524 0.235534 1.8612 -227.73 -10736.4 224.179 
45 1.78e-05 94.8585 97.3038 95.6694 -0.694307 0.260786 1.0786 -80.1377 -10753.1 132.284 
46 1.82e-05 95.5178 97.3521 97.5516 -0.612207 0.36396 1.19786 -213.336 -10730.1 -128.752 
47 1.86e-05 94.7524 97.2855 96.6937 -0.701032 0.267655 0.46828 138.048 -10764 -181.825 
48 1.9e-05 95.3115 97.2617 95.527 -0.629521 0.352665 0.95347 -339.907 -10775 40.0324 
49 1.94e-05 96.0352 97.2584 96.1359 -0.634603 0.358887 0.200821 -304.632 -10769.6 -176.609 
50 1.98e-05 95.6508 97.1519 97.6667 -0.60668 0.438686 -0.582421 -43.6496 -10744.8 -21.6268 
51 2.02e-05 96.1592 97.2151 96.6772 -0.533201 0.337842 0.311423 102.386 -10666 344.5 
52 2.06e-05 96.0715 97.1958 96.3394 -0.626647 0.337987 0.152156 120.611 -10685.7 120.762 
53 2.1e-05 99.7 97.2495 96.0297 -0.665926 0.270654 0.376852 -257.499 -10684.7 -186.996 
54 2.14e-05 97.3536 97.3432 94.8831 -0.643379 0.229286 -0.175164 19.8139 -10705.6 -159.589 
55 2.18e-05 96.9804 97.2338 96.294 -0.652321 0.260819 -0.46821 299.64 -10672.4 -229.247 
56 2.22e-05 96.4974 97.2025 100.397 -0.652736 0.242179 -0.549181 435.117 -10659.8 -283.983 
57 2.26e-05 96.4751 97.2754 98.0525 -0.625998 0.28061 0.125674 82.4701 -10698.6 -314.464 
58 2.3e-05 97.1889 97.3319 99.6916 -0.593498 0.249257 0.362892 -524.857 -10678.3 18.0611 
59 2.34e-05 98.8266 97.2514 99.8824 -0.530627 0.175593 0.83464 -366.518 -10662.5 -59.8185 
60 2.38e-05 99.4405 97.2786 101.183 -0.564924 0.256534 0.959367 -25.5205 -10592 592.622 
61 2.42e-05 98.1069 97.3315 99.1666 -0.582444 0.231209 1.18353 -659.175 -10661.6 192.929 
62 2.46e-05 97.6422 97.353 100.081 -0.610584 0.218392 0.119679 -90.1423 -10602.1 -257.467 
63 2.5e-05 97.7709 97.3626 99.3401 -0.696992 0.269247 1.23178 -726.494 -10587.2 -40.0628 
64 2.54e-05 97.2676 97.3161 98.1854 -0.660194 0.315906 -0.02372 -463.877 -10629.7 210.287 
65 2.58e-05 96.3924 97.2311 96.9002 -0.689488 0.194007 -0.309394 -788.027 -10581.7 157.747 
66 2.62e-05 98.0105 97.1923 96.717 -0.644967 0.269046 0.414544 -814.316 -10615.9 114.953 
67 2.66e-05 96.4641 97.286 96.1012 -0.654508 0.249361 -0.374579 -679.721 -10576.9 254.596 
68 2.7e-05 95.9076 97.3496 96.523 -0.693947 0.35776 1.25188 -581.294 -10639.4 -302.757 
69 2.74e-05 96.4916 97.407 97.2358 -0.681375 0.29852 0.196487 -314.513 -10656.3 -10.1635 
70 2.78e-05 95.7255 97.2985 96.1732 -0.672573 0.198602 -0.599309 -120.319 -10590.9 115.1 
71 2.82e-05 95.7849 97.344 96.9548 -0.709413 0.22274 -0.028641 -422.962 -10595.8 386.142 
72 2.86e-05 95.5169 97.4089 95.6695 -0.7446 0.118705 -0.0117525 -298.796 -10646.7 7.31685 
73 2.9e-05 96.2277 97.4043 98.5342 -0.815295 0.202306 1.25419 -298.421 -10600 -378.82 
74 2.94e-05 96.3412 97.4063 96.3172 -0.755707 0.242139 0.487188 -425.43 -10671.6 -672.905 
75 2.98e-05 98.0268 97.3827 97.8562 -0.840536 0.244658 0.159002 -515.919 -10674.2 -86.6691 
76 3.02e-05 97.0059 97.3521 98.2248 -0.864795 0.225624 0.837655 -362.059 -10618.8 -196.135 
77 3.06e-05 99.2527 97.3912 96.8555 -0.831331 0.214726 0.730928 -603.473 -10614.6 -441.943 
78 3.1e-05 97.0026 97.4223 95.5587 -0.90864 0.288123 0.827242 -828.427 -10673.4 -502.467 
79 3.14e-05 96.571 97.4572 96.6288 -0.795343 0.144662 0.65829 122.187 -10664.7 -243.292 
80 3.18e-05 100.206 97.5481 97.2763 -0.843185 0.20732 0.195497 -592.74 -10657.7 -246.976 
81 3.22e-05 98.6728 97.5853 96.5455 -0.812485 0.252038 -0.440633 62.9152 -10665.1 -93.8754 
82 3.26e-05 98.3147 97.5424 96.8927 -0.871436 0.156279 0.871798 -544.531 -10673.3 95.1414 
83 3.3e-05 96.7059 97.545 96.205 -0.851178 0.190609 0.508279 -335.757 -10636.6 -229.081 
84 3.34e-05 99.6061 97.5496 97.3676 -0.860087 0.171095 0.987488 -229.564 -10676.3 -23.0209 
85 3.38e-05 97.2897 97.5194 95.1925 -0.746572 0.0813419 -0.39664 -924.401 -10677.6 276.064 
86 3.42e-05 98.8713 97.5073 96.8583 -0.678103 0.160386 -0.357573 -787.182 -10678.5 -202.694 
87 3.46e-05 97.8784 97.6113 95.6575 -0.742287 0.176516 0.836021 -364.627 -10641.9 -19.2076 
88 3.5e-05 97.6138 97.5186 97.3449 -0.774393 0.203293 1.34085 17.851 -10628.5 108.067 
89 3.54e-05 98.5684 97.5933 98.8806 -0.675651 0.236166 0.904861 -331.478 -10643.5 -265.549 
90 3.58e-05 98.8887 97.6506 97.7489 -0.767387 0.243077 0.747342 -349.187 -10627.5 -103.48 
91 3.62e-05 99.1795 97.5681 98.1163 -0.667756 0.212752 0.396532 -420.936 -10591.5 115.857 
92 3.66e-05 99.6243 97.568 99.7649 -0.637304 0.196763 0.378852 -253.799 -10572.9 166.509 
93 3.7e-05 98.78 97.5811 98.473 -0.498539 0.129776 1.15437 280.394 -10582.6 387.269 
94 3.74e-05 98.4284 97.5604 100.869 -0.57846 0.242294 1.28445 221.345 -10551.1 136.323 
95 3.78e-05 100.495 97.5299 102.329 -0.564825 0.208098 1.8584 117.056 -10533 372.023 
96 3.82e-05 98.9948 97.5403 99.636 -0.46026 0.193766 1.27419 -209.165 -10518.3 143.931 
97 3.86e-05 98.6756 97.4441 99.2743 -0.485802 0.188094 0.942865 6.75186 -10524.3 -21.3574 
98 3.9e-05 98.5589 97.4629 99.4711 -0.517767 0.214206 0.899947 271.622 -10478.4 130.169 
99 3.94e-05 97.2323 97.4192 99.2592 -0.47978 0.253049 0.439487 -15.4281 -10516.7 -117.911 
100 3.98e-05 96.5566 97.4106 98.4028 -0.524512 0.261512 0.360881 379.678 -10547.3 49.3026 
