ITEM: TIMESTEP
300000
ITEM: NUMBER OF CELLS
200
ITEM: BOX BOUNDS pp ss pp
0 0.0001
0 4e-05
0 0.0001
ITEM: CELLS id yc f_rho[1] f_rho[2] f_state[1] f_state[2] 
1 1e-07 112.053 2.836e+22 254.149 99.5124 
2 3e-07 110.392 2.82444e+22 255.286 99.5503 
3 5e-07 109.613 2.815e+22 256.208 99.5758 
4 7e-07 109.156 2.80461e+22 257.006 99.5172 
5 9e-07 108.893 2.79641e+22 257.81 99.5368 
6 1.1e-06 108.824 2.79608e+22 258.055 99.6197 
7 1.3e-06 108.723 2.7903e+22 258.574 99.6138 
8 1.5e-06 108.663 2.78717e+22 258.977 99.6571 
9 1.7e-06 108.464 2.78139e+22 259.26 99.559 
10 1.9e-06 108.455 2.77856e+22 259.931 99.7152 
11 2.1e-06 108.513 2.77648e+22 260.373 99.8099 
12 2.3e-06 108.254 2.76787e+22 260.844 99.6803 
13 2.5e-06 108.175 2.76104e+22 261.546 99.7021 
14 2.7e-06 108.397 2.76278e+22 261.638 99.8 
15 2.9e-06 108.349 2.76092e+22 262.035 99.8842 
16 3.1e-06 108.406 2.7572e+22 262.491 99.9232 
17 3.3e-06 108.136 2.74545e+22 263.224 99.7752 
18 3.5e-06 108.134 2.74297e+22 263.732 99.8774 
19 3.7e-06 108.109 2.74083e+22 263.947 99.8808 
20 3.9e-06 108.016 2.73656e+22 264.406 99.8987 
21 4.1e-06 108.149 2.73536e+22 264.611 99.9322 
22 4.3e-06 108.122 2.73179e+22 265.057 99.9702 
23 4.5e-06 108.1 2.72621e+22 265.435 99.9084 
24 4.7e-06 108.077 2.72275e+22 265.887 99.9509 
25 4.9e-06 108.153 2.72099e+22 266.134 99.9795 
26 5.1e-06 108.158 2.72119e+22 266.228 100.022 
27 5.3e-06 108.109 2.71831e+22 266.696 100.092 
28 5.5e-06 108.105 2.71476e+22 267.346 100.205 
29 5.7e-06 108.047 2.70995e+22 267.628 100.133 
30 5.9e-06 108.19 2.70964e+22 267.904 100.224 
31 6.1e-06 108.044 2.70331e+22 268.311 100.142 
32 6.3e-06 108.084 2.70362e+22 268.383 100.181 
33 6.5e-06 107.968 2.6981e+22 269.039 100.221 
34 6.7e-06 108.033 2.69741e+22 269.419 100.336 
35 6.9e-06 108.118 2.69874e+22 269.337 100.355 
36 7.1e-06 108.104 2.69583e+22 269.743 100.398 
37 7.3e-06 108.041 2.69215e+22 270.074 100.384 
38 7.5e-06 108.112 2.69154e+22 270.296 100.444 
39 7.7e-06 108.114 2.69032e+22 270.477 100.466 
40 7.9e-06 108.142 2.68888e+22 270.737 100.508 
41 8.1e-06 108.138 2.68672e+22 271.069 100.551 
42 8.3e-06 108.191 2.68339e+22 271.145 100.454 
43 8.5e-06 108.042 2.67769e+22 271.645 100.426 
44 8.7e-06 108.043 2.67631e+22 272.087 100.538 
45 8.9e-06 108.071 2.67561e+22 272.16 100.538 
46 9.1e-06 107.969 2.67185e+22 272.634 100.571 
47 9.3e-06 107.925 2.66749e+22 272.931 100.517 
48 9.5e-06 107.999 2.66723e+22 273.207 100.609 
49 9.7e-06 107.884 2.66175e+22 273.467 100.497 
50 9.9e-06 107.819 2.65639e+22 273.845 100.434 
51 1.01e-05 107.955 2.65715e+22 273.989 100.516 
52 1.03e-05 107.972 2.65634e+22 274.32 100.606 
53 1.05e-05 107.928 2.65385e+22 274.516 100.584 
54 1.07e-05 107.922 2.65079e+22 274.904 100.61 
55 1.09e-05 107.807 2.64483e+22 275.262 100.514 
56 1.11e-05 107.857 2.64369e+22 275.643 100.61 
57 1.13e-05 107.934 2.64357e+22 275.67 100.615 
58 1.15e-05 107.995 2.64176e+22 275.937 100.644 
59 1.17e-05 107.949 2.63893e+22 276.005 100.561 
60 1.19e-05 107.925 2.63799e+22 276.231 100.607 
61 1.21e-05 107.848 2.63428e+22 276.533 100.576 
62 1.23e-05 107.825 2.63017e+22 276.964 100.575 
63 1.25e-05 107.867 2.62941e+22 277.414 100.709 
64 1.27e-05 107.867 2.62638e+22 277.714 100.702 
65 1.29e-05 107.828 2.62538e+22 278.063 100.79 
66 1.31e-05 107.887 2.6232e+22 278.065 100.707 
67 1.33e-05 107.874 2.61906e+22 278.386 100.665 
68 1.35e-05 107.855 2.61591e+22 278.583 100.614 
69 1.37e-05 107.924 2.61339e+22 279.186 100.735 
70 1.39e-05 107.933 2.61352e+22 279.291 100.778 
71 1.41e-05 107.802 2.60892e+22 279.726 100.758 
72 1.43e-05 107.771 2.60409e+22 280.093 100.703 
73 1.45e-05 107.901 2.60708e+22 279.838 100.727 
74 1.47e-05 107.866 2.60556e+22 280.255 100.818 
75 1.49e-05 107.727 2.6027e+22 280.392 100.757 
76 1.51e-05 107.748 2.59909e+22 280.795 100.762 
77 1.53e-05 107.792 2.59888e+22 280.969 100.816 
78 1.55e-05 107.854 2.59938e+22 281.304 100.955 
79 1.57e-05 107.69 2.59603e+22 281.694 100.965 
80 1.59e-05 107.818 2.59556e+22 281.951 101.039 
81 1.61e-05 107.849 2.59609e+22 281.811 101.009 
82 1.63e-05 107.83 2.59207e+22 282.146 100.972 
83 1.65e-05 107.86 2.58886e+22 282.364 100.925 
84 1.67e-05 107.811 2.58608e+22 282.88 101.001 
85 1.69e-05 107.885 2.58713e+22 283.08 101.114 
86 1.71e-05 107.918 2.58507e+22 283.321 101.119 
87 1.73e-05 107.891 2.58342e+22 283.525 101.127 
88 1.75e-05 107.913 2.58088e+22 283.732 101.102 
89 1.77e-05 107.816 2.57718e+22 284.132 101.099 
90 1.79e-05 107.848 2.57713e+22 284.425 101.202 
91 1.81e-05 107.85 2.57542e+22 284.919 101.31 
92 1.83e-05 107.832 2.57152e+22 285.213 101.261 
93 1.85e-05 107.881 2.57189e+22 285.361 101.328 
94 1.87e-05 107.785 2.56792e+22 285.508 101.224 
95 1.89e-05 107.881 2.56766e+22 285.963 101.375 
96 1.91e-05 107.836 2.5644e+22 286.428 101.411 
97 1.93e-05 107.883 2.56201e+22 286.617 101.383 
98 1.95e-05 107.9 2.56141e+22 286.44 101.297 
99 1.97e-05 107.907 2.56048e+22 286.247 101.192 
100 1.99e-05 107.873 2.55728e+22 286.581 101.183 
101 2.01e-05 107.896 2.55497e+22 287.023 101.248 
102 2.03e-05 107.852 2.55081e+22 287.585 101.281 
103 2.05e-05 107.806 2.54674e+22 287.959 101.251 
104 2.07e-05 107.771 2.5447e+22 288.145 101.235 
105 2.09e-05 107.699 2.54007e+22 288.491 101.172 
106 2.11e-05 107.741 2.53865e+22 288.805 101.226 
107 2.13e-05 107.794 2.53761e+22 289.155 101.307 
108 2.15e-05 107.73 2.53346e+22 289.614 101.302 
109 2.17e-05 107.686 2.53069e+22 289.401 101.117 
110 2.19e-05 107.755 2.53309e+22 289.495 101.245 
111 2.21e-05 107.686 2.52702e+22 290.443 101.334 
112 2.23e-05 107.747 2.52566e+22 290.658 101.354 
113 2.25e-05 107.773 2.52516e+22 290.604 101.315 
114 2.27e-05 107.83 2.52891e+22 290.569 101.453 
115 2.29e-05 107.806 2.52448e+22 291.234 101.507 
116 2.31e-05 107.784 2.52116e+22 291.638 101.515 
117 2.33e-05 107.652 2.51601e+22 291.708 101.331 
118 2.35e-05 107.613 2.51483e+22 292.133 101.431 
119 2.37e-05 107.685 2.51471e+22 292.187 101.445 
120 2.39e-05 107.615 2.51076e+22 292.359 101.345 
121 2.41e-05 107.641 2.50926e+22 292.675 101.394 
122 2.43e-05 107.76 2.51116e+22 292.713 101.484 
123 2.45e-05 107.719 2.50872e+22 293.173 101.545 
124 2.47e-05 107.755 2.50712e+22 293.7 101.663 
125 2.49e-05 107.696 2.505e+22 294.109 101.719 
126 2.51e-05 107.786 2.50437e+22 294.252 101.742 
127 2.53e-05 107.726 2.50093e+22 294.41 101.657 
128 2.55e-05 107.65 2.49696e+22 294.665 101.583 
129 2.57e-05 107.615 2.4935e+22 295.115 101.597 
130 2.59e-05 107.749 2.49348e+22 295.261 101.647 
131 2.61e-05 107.736 2.49286e+22 295.618 101.745 
132 2.63e-05 107.68 2.49051e+22 295.891 101.743 
133 2.65e-05 107.536 2.48505e+22 296.262 101.647 
134 2.67e-05 107.615 2.48598e+22 296.693 101.833 
135 2.69e-05 107.573 2.48213e+22 296.827 101.721 
136 2.71e-05 107.483 2.47801e+22 297.116 101.651 
137 2.73e-05 107.562 2.48e+22 297.351 101.813 
138 2.75e-05 107.589 2.47772e+22 297.551 101.788 
139 2.77e-05 107.629 2.47551e+22 297.617 101.72 
140 2.79e-05 107.559 2.47188e+22 298.06 101.722 
141 2.81e-05 107.692 2.47483e+22 298.175 101.883 
142 2.83e-05 107.668 2.47116e+22 298.239 101.753 
143 2.85e-05 107.47 2.46648e+22 298.727 101.727 
144 2.87e-05 107.436 2.46168e+22 299.322 101.731 
145 2.89e-05 107.486 2.46384e+22 299.73 101.959 
146 2.91e-05 107.678 2.4664e+22 299.735 102.067 
147 2.93e-05 107.636 2.4622e+22 299.783 101.909 
148 2.95e-05 107.605 2.45844e+22 299.961 101.814 
149 2.97e-05 107.634 2.45827e+22 300.22 101.895 
150 2.99e-05 107.61 2.45427e+22 300.712 101.896 
151 3.01e-05 107.513 2.44854e+22 301.317 101.862 
152 3.03e-05 107.461 2.44298e+22 301.969 101.851 
153 3.05e-05 107.473 2.4437e+22 302.017 101.897 
154 3.07e-05 107.495 2.44302e+22 302.753 102.117 
155 3.09e-05 107.569 2.44265e+22 303.008 102.188 
156 3.11e-05 107.438 2.43935e+22 303.069 102.07 
157 3.13e-05 107.347 2.43548e+22 303.559 102.073 
158 3.15e-05 107.561 2.44022e+22 303.63 102.296 
159 3.17e-05 107.61 2.44084e+22 303.573 102.303 
160 3.19e-05 107.634 2.43866e+22 303.676 102.246 
161 3.21e-05 107.528 2.43216e+22 304.205 102.151 
162 3.23e-05 107.481 2.42978e+22 304.442 102.13 
163 3.25e-05 107.454 2.42837e+22 304.946 102.24 
164 3.27e-05 107.329 2.42166e+22 305.498 102.142 
165 3.29e-05 107.327 2.41968e+22 305.776 102.152 
166 3.31e-05 107.557 2.42289e+22 305.843 102.31 
167 3.33e-05 107.491 2.41913e+22 306.166 102.259 
168 3.35e-05 107.43 2.4174e+22 306.459 102.283 
169 3.37e-05 107.558 2.41964e+22 306.377 102.351 
170 3.39e-05 107.374 2.41272e+22 307.194 102.33 
171 3.41e-05 107.525 2.41767e+22 307.153 102.526 
172 3.43e-05 107.419 2.41284e+22 307.62 102.477 
173 3.45e-05 107.43 2.40954e+22 308.049 102.48 
174 3.47e-05 107.461 2.40688e+22 308.317 102.455 
175 3.49e-05 107.446 2.40399e+22 308.382 102.354 
176 3.51e-05 107.388 2.39899e+22 308.787 102.275 
177 3.53e-05 107.361 2.39669e+22 309.126 102.29 
178 3.55e-05 107.445 2.39663e+22 309.428 102.387 
179 3.57e-05 107.409 2.39326e+22 309.754 102.351 
180 3.59e-05 107.335 2.38981e+22 310.284 102.378 
181 3.61e-05 107.382 2.38936e+22 310.233 102.342 
182 3.63e-05 107.352 2.38752e+22 310.608 102.386 
183 3.65e-05 107.287 2.38274e+22 310.935 102.289 
184 3.67e-05 107.269 2.38118e+22 311.345 102.357 
185 3.69e-05 107.228 2.37871e+22 311.595 102.333 
186 3.71e-05 107.179 2.37591e+22 311.842 102.293 
187 3.73e-05 107.227 2.3743e+22 312.242 102.355 
188 3.75e-05 107.238 2.37257e+22 312.563 102.386 
189 3.77e-05 107.189 2.37008e+22 313.315 102.524 
190 3.79e-05 107.378 2.37153e+22 313.771 102.737 
191 3.81e-05 107.313 2.36641e+22 314.036 102.601 
192 3.83e-05 107.243 2.36215e+22 314.804 102.667 
193 3.85e-05 107.193 2.35697e+22 314.999 102.505 
194 3.87e-05 107.133 2.3539e+22 315.321 102.476 
195 3.89e-05 107.025 2.35034e+22 315.959 102.528 
196 3.91e-05 107.154 2.35115e+22 316.236 102.654 
197 3.93e-05 107.019 2.34618e+22 317.069 102.707 
198 3.95e-05 106.897 2.34206e+22 317.735 102.741 
199 3.97e-05 106.795 2.33617e+22 318.25 102.649 
200 3.99e-05 106.673 2.33117e+22 319.196 102.734 
