ITEM: TIMESTEP
100000
ITEM: NUMBER OF CELLS
200
ITEM: BOX BOUNDS pp ss pp
0 0.0001
0 4e-05
0 0.0001
ITEM: CELLS id yc f_rho[1] f_rho[2] f_state[1] f_state[2] 
1 1e-07 111.368 2.82702e+22 254.481 99.3274 
2 3e-07 109.996 2.81233e+22 255.338 99.1439 
3 5e-07 109.267 2.79983e+22 256.461 99.137 
4 7e-07 109.204 2.80061e+22 257.064 99.3978 
5 9e-07 108.988 2.7903e+22 257.408 99.1646 
6 1.1e-06 108.949 2.78288e+22 258.021 99.1365 
7 1.3e-06 108.685 2.77503e+22 258.453 99.0225 
8 1.5e-06 108.48 2.77011e+22 258.983 99.0493 
9 1.7e-06 108.809 2.78045e+22 259.043 99.4422 
10 1.9e-06 108.716 2.77942e+22 259.244 99.4825 
11 2.1e-06 108.6 2.77036e+22 259.808 99.3735 
12 2.3e-06 108.585 2.76995e+22 260.436 99.5993 
13 2.5e-06 108.522 2.76383e+22 260.44 99.3805 
14 2.7e-06 108.341 2.75682e+22 261.207 99.4206 
15 2.9e-06 108.585 2.7552e+22 261.214 99.365 
16 3.1e-06 108.628 2.75581e+22 261.781 99.6027 
17 3.3e-06 108.37 2.74728e+22 262.217 99.4596 
18 3.5e-06 108.237 2.73875e+22 262.707 99.3364 
19 3.7e-06 108.103 2.73275e+22 263.113 99.2719 
20 3.9e-06 108.482 2.74031e+22 263.857 99.8277 
21 4.1e-06 108.474 2.74081e+22 264.243 99.9919 
22 4.3e-06 108.622 2.74525e+22 264.017 100.068 
23 4.5e-06 108.486 2.7401e+22 264.079 99.9041 
24 4.7e-06 108.219 2.72922e+22 264.571 99.6929 
25 4.9e-06 108.626 2.73618e+22 264.137 99.7829 
26 5.1e-06 108.579 2.7334e+22 265.124 100.054 
27 5.3e-06 108.263 2.71812e+22 266.074 99.8516 
28 5.5e-06 108.111 2.71285e+22 266.374 99.7705 
29 5.7e-06 108.324 2.71949e+22 266.025 99.8834 
30 5.9e-06 108.538 2.72657e+22 264.765 99.6689 
31 6.1e-06 108.186 2.71099e+22 266.082 99.5926 
32 6.3e-06 108.367 2.71267e+22 267.084 100.029 
33 6.5e-06 108.237 2.71143e+22 267.044 99.9689 
34 6.7e-06 108.296 2.70962e+22 267.548 100.091 
35 6.9e-06 108.271 2.70166e+22 268.078 99.9944 
36 7.1e-06 108.038 2.69749e+22 268.928 100.156 
37 7.3e-06 108.211 2.69587e+22 269.312 100.239 
38 7.5e-06 108.546 2.70463e+22 268.818 100.381 
39 7.7e-06 108.403 2.69726e+22 269.192 100.246 
40 7.9e-06 108.458 2.70116e+22 269.48 100.499 
41 8.1e-06 108.428 2.69517e+22 269.983 100.463 
42 8.3e-06 108.279 2.68855e+22 270.775 100.51 
43 8.5e-06 108.123 2.68279e+22 271.368 100.515 
44 8.7e-06 107.868 2.67351e+22 271.898 100.363 
45 8.9e-06 107.907 2.67514e+22 271.428 100.25 
46 9.1e-06 108.256 2.6771e+22 271.851 100.479 
47 9.3e-06 108.097 2.67438e+22 271.73 100.333 
48 9.5e-06 108.152 2.67614e+22 272.098 100.535 
49 9.7e-06 108.434 2.67748e+22 272.348 100.678 
50 9.9e-06 108.371 2.67474e+22 272.356 100.578 
51 1.01e-05 108.177 2.66744e+22 273.364 100.674 
52 1.03e-05 108.246 2.66973e+22 273.466 100.798 
53 1.05e-05 108.435 2.6758e+22 272.855 100.802 
54 1.07e-05 108.376 2.67289e+22 272.844 100.688 
55 1.09e-05 108.116 2.65966e+22 273.51 100.434 
56 1.11e-05 107.993 2.65438e+22 274.068 100.439 
57 1.13e-05 108.19 2.65317e+22 274.68 100.618 
58 1.15e-05 108.165 2.6498e+22 274.677 100.489 
59 1.17e-05 108.268 2.64986e+22 274.827 100.546 
60 1.19e-05 108.229 2.64344e+22 275.764 100.645 
61 1.21e-05 108.218 2.6405e+22 276.258 100.713 
62 1.23e-05 108.046 2.63487e+22 276.609 100.626 
63 1.25e-05 108.302 2.63656e+22 276.322 100.586 
64 1.27e-05 108.291 2.6349e+22 276.534 100.599 
65 1.29e-05 108.077 2.62081e+22 276.992 100.227 
66 1.31e-05 108.085 2.61659e+22 278.105 100.468 
67 1.33e-05 107.882 2.61305e+22 277.723 100.194 
68 1.35e-05 108.037 2.61913e+22 278.144 100.58 
69 1.37e-05 108.075 2.61852e+22 278.525 100.694 
70 1.39e-05 107.897 2.61018e+22 279.133 100.592 
71 1.41e-05 108.259 2.61937e+22 279.02 100.905 
72 1.43e-05 107.688 2.59532e+22 279.557 100.172 
73 1.45e-05 108.02 2.60202e+22 279.347 100.355 
74 1.47e-05 107.883 2.60041e+22 279.958 100.512 
75 1.49e-05 108.015 2.60401e+22 280.498 100.845 
76 1.51e-05 108.036 2.59873e+22 280.853 100.768 
77 1.53e-05 107.959 2.59488e+22 282.106 101.068 
78 1.55e-05 107.836 2.58944e+22 281.705 100.712 
79 1.57e-05 108.05 2.59733e+22 282.031 101.136 
80 1.59e-05 108.146 2.59911e+22 282.12 101.237 
81 1.61e-05 108.119 2.596e+22 282.704 101.326 
82 1.63e-05 107.896 2.587e+22 283.237 101.165 
83 1.65e-05 108.163 2.5872e+22 283.16 101.145 
84 1.67e-05 107.878 2.58428e+22 283.938 101.309 
85 1.69e-05 108.022 2.58943e+22 282.86 101.125 
86 1.71e-05 107.975 2.58451e+22 283.379 101.118 
87 1.73e-05 107.918 2.58161e+22 283.323 100.985 
88 1.75e-05 108.013 2.5838e+22 283.82 101.248 
89 1.77e-05 108.133 2.58379e+22 283.523 101.141 
90 1.79e-05 107.858 2.57286e+22 284.192 100.951 
91 1.81e-05 107.847 2.56985e+22 284.689 101.01 
92 1.83e-05 107.836 2.56793e+22 285.607 101.26 
93 1.85e-05 108.05 2.56927e+22 285.931 101.427 
94 1.87e-05 107.982 2.55926e+22 286.573 101.259 
95 1.89e-05 107.776 2.55679e+22 286.787 101.237 
96 1.91e-05 107.941 2.55996e+22 286.379 101.218 
97 1.93e-05 108.216 2.56558e+22 286.204 101.378 
98 1.95e-05 107.883 2.55122e+22 287.39 101.229 
99 1.97e-05 107.752 2.54546e+22 287.661 101.095 
100 1.99e-05 107.979 2.54862e+22 287.439 101.143 
101 2.01e-05 107.877 2.54176e+22 288.214 101.142 
102 2.03e-05 107.965 2.54551e+22 287.891 101.178 
103 2.05e-05 107.823 2.54213e+22 287.881 101.04 
104 2.07e-05 107.975 2.54033e+22 288.73 101.266 
105 2.09e-05 107.755 2.53625e+22 288.384 100.983 
106 2.11e-05 107.772 2.53096e+22 288.977 100.979 
107 2.13e-05 107.923 2.53757e+22 289.382 101.385 
108 2.15e-05 107.569 2.53057e+22 289.467 101.135 
109 2.17e-05 107.88 2.53867e+22 289.773 101.566 
110 2.19e-05 108.045 2.5409e+22 289.866 101.688 
111 2.21e-05 107.932 2.52887e+22 290.695 101.496 
112 2.23e-05 108.118 2.53302e+22 290.462 101.581 
113 2.25e-05 107.583 2.5216e+22 290.755 101.225 
114 2.27e-05 107.612 2.52101e+22 291.843 101.58 
115 2.29e-05 107.89 2.52417e+22 291.715 101.662 
116 2.31e-05 107.804 2.52298e+22 292.241 101.798 
117 2.33e-05 107.646 2.51629e+22 292.229 101.524 
118 2.35e-05 107.762 2.51716e+22 292 101.479 
119 2.37e-05 107.978 2.51853e+22 291.519 101.367 
120 2.39e-05 108.087 2.51966e+22 292.061 101.601 
121 2.41e-05 107.757 2.51187e+22 293.024 101.621 
122 2.43e-05 107.902 2.51755e+22 292.452 101.652 
123 2.45e-05 108.101 2.51447e+22 293.237 101.8 
124 2.47e-05 107.738 2.49942e+22 293.284 101.207 
125 2.49e-05 107.7 2.50004e+22 293.947 101.461 
126 2.51e-05 108.006 2.50997e+22 292.882 101.495 
127 2.53e-05 107.968 2.50224e+22 293.689 101.461 
128 2.55e-05 107.657 2.49256e+22 293.633 101.049 
129 2.57e-05 107.633 2.48832e+22 294.785 101.273 
130 2.59e-05 107.753 2.4825e+22 294.956 101.095 
131 2.61e-05 107.503 2.47501e+22 295.532 100.987 
132 2.63e-05 107.871 2.48283e+22 295.75 101.38 
133 2.65e-05 107.9 2.48508e+22 295.612 101.425 
134 2.67e-05 107.715 2.47978e+22 296.276 101.436 
135 2.69e-05 107.784 2.48171e+22 296.44 101.571 
136 2.71e-05 107.752 2.48152e+22 296.648 101.635 
137 2.73e-05 107.683 2.4788e+22 297.186 101.708 
138 2.75e-05 107.893 2.48189e+22 297.782 102.039 
139 2.77e-05 107.812 2.47627e+22 297.701 101.78 
140 2.79e-05 107.779 2.47326e+22 297.74 101.669 
141 2.81e-05 107.67 2.46613e+22 297.882 101.424 
142 2.83e-05 107.815 2.47736e+22 298.097 101.96 
143 2.85e-05 107.877 2.47321e+22 298.641 101.975 
144 2.87e-05 107.706 2.46828e+22 299.135 101.94 
145 2.89e-05 107.653 2.46778e+22 300.211 102.286 
146 2.91e-05 107.802 2.4688e+22 300.338 102.371 
147 2.93e-05 107.801 2.46134e+22 301.059 102.307 
148 2.95e-05 108.087 2.46745e+22 300.36 102.323 
149 2.97e-05 107.938 2.46393e+22 300.275 102.148 
150 2.99e-05 107.851 2.46023e+22 300.494 102.069 
151 3.01e-05 107.702 2.45303e+22 300.957 101.927 
152 3.03e-05 107.988 2.46102e+22 301.214 102.347 
153 3.05e-05 107.845 2.45311e+22 301.629 102.158 
154 3.07e-05 107.682 2.45113e+22 302.444 102.352 
155 3.09e-05 107.955 2.45531e+22 302.268 102.466 
156 3.11e-05 107.894 2.45439e+22 302.541 102.521 
157 3.13e-05 108.081 2.45813e+22 302.465 102.651 
158 3.15e-05 107.866 2.44761e+22 303.148 102.443 
159 3.17e-05 107.594 2.43876e+22 304.06 102.379 
160 3.19e-05 107.647 2.4354e+22 304.28 102.312 
161 3.21e-05 107.561 2.43331e+22 304.072 102.154 
162 3.23e-05 107.673 2.43391e+22 304.663 102.378 
163 3.25e-05 107.738 2.42874e+22 305.569 102.465 
164 3.27e-05 107.597 2.42209e+22 305.421 102.135 
165 3.29e-05 107.395 2.41735e+22 305.88 102.088 
166 3.31e-05 107.453 2.42008e+22 306.315 102.348 
167 3.33e-05 107.562 2.42149e+22 306.028 102.312 
168 3.35e-05 107.585 2.41664e+22 306.145 102.146 
169 3.37e-05 107.546 2.41421e+22 306.478 102.154 
170 3.39e-05 107.684 2.41477e+22 306.548 102.201 
171 3.41e-05 107.564 2.41409e+22 307.181 102.384 
172 3.43e-05 107.354 2.40167e+22 307.694 102.027 
173 3.45e-05 107.358 2.39623e+22 308.657 102.115 
174 3.47e-05 107.452 2.399e+22 308.725 102.255 
175 3.49e-05 107.49 2.39381e+22 308.324 101.901 
176 3.51e-05 107.497 2.39398e+22 308.681 102.027 
177 3.53e-05 107.431 2.39482e+22 309.485 102.328 
178 3.55e-05 107.515 2.39339e+22 309.392 102.237 
179 3.57e-05 107.732 2.39353e+22 310.015 102.448 
180 3.59e-05 107.326 2.38454e+22 310.18 102.118 
181 3.61e-05 107.242 2.38195e+22 310.373 102.07 
182 3.63e-05 107.555 2.3854e+22 310.378 102.22 
183 3.65e-05 107.595 2.3798e+22 310.488 102.016 
184 3.67e-05 107.449 2.37511e+22 311.1 102.016 
185 3.69e-05 107.411 2.36995e+22 311.841 102.037 
186 3.71e-05 107.254 2.3659e+22 312.735 102.154 
187 3.73e-05 107.395 2.36602e+22 313.23 102.321 
188 3.75e-05 107.483 2.36415e+22 313.188 102.226 
189 3.77e-05 107.384 2.36574e+22 313.799 102.495 
190 3.79e-05 107.449 2.36258e+22 314.224 102.497 
191 3.81e-05 107.445 2.35216e+22 314.884 102.259 
192 3.83e-05 107.284 2.34657e+22 315.186 102.114 
193 3.85e-05 107.083 2.33728e+22 315.865 101.928 
194 3.87e-05 107.3 2.34183e+22 316.285 102.263 
195 3.89e-05 107.109 2.33669e+22 316.941 102.25 
196 3.91e-05 107.043 2.33117e+22 317.34 102.137 
197 3.93e-05 107.232 2.33214e+22 317.727 102.304 
198 3.95e-05 107.19 2.33062e+22 317.28 102.093 
199 3.97e-05 107.056 2.32592e+22 317.97 102.109 
200 3.99e-05 107.154 2.32171e+22 318.891 102.219 
