ITEM: TIMESTEP
300000
ITEM: NUMBER OF CELLS
200
ITEM: BOX BOUNDS pp ss pp
0 0.0001
0 4e-05
0 0.0001
ITEM: CELLS id yc f_rho[1] f_rho[2] f_state[1] f_state[2] 
1 1e-07 114.48 2.81791e+22 253.97 98.8082 
2 3e-07 114.152 2.80984e+22 254.562 98.7547 
3 5e-07 114.011 2.80635e+22 255.136 98.8548 
4 7e-07 113.74 2.79969e+22 255.552 98.781 
5 9e-07 113.594 2.79609e+22 255.986 98.821 
6 1.1e-06 113.407 2.79149e+22 256.457 98.8401 
7 1.3e-06 113.237 2.7873e+22 257.032 98.9132 
8 1.5e-06 113.133 2.78475e+22 257.351 98.9454 
9 1.7e-06 112.844 2.77763e+22 258.116 98.9856 
10 1.9e-06 112.747 2.77523e+22 258.777 99.1535 
11 2.1e-06 112.573 2.77096e+22 258.764 98.9958 
12 2.3e-06 112.611 2.77189e+22 259.152 99.1777 
13 2.5e-06 112.545 2.77027e+22 259.349 99.1951 
14 2.7e-06 112.404 2.7668e+22 259.988 99.3149 
15 2.9e-06 112.335 2.76511e+22 260.648 99.5063 
16 3.1e-06 112.095 2.7592e+22 260.977 99.419 
17 3.3e-06 111.8 2.75194e+22 261.307 99.2825 
18 3.5e-06 111.573 2.74634e+22 261.433 99.1285 
19 3.7e-06 111.472 2.74385e+22 261.594 99.0997 
20 3.9e-06 111.32 2.74011e+22 262.103 99.1572 
21 4.1e-06 111.223 2.73773e+22 262.536 99.2348 
22 4.3e-06 111.152 2.73598e+22 262.662 99.2187 
23 4.5e-06 110.976 2.73165e+22 262.858 99.1353 
24 4.7e-06 110.908 2.72996e+22 263.682 99.3848 
25 4.9e-06 110.782 2.72686e+22 263.902 99.3547 
26 5.1e-06 110.465 2.71908e+22 264.353 99.2408 
27 5.3e-06 110.425 2.7181e+22 264.741 99.3501 
28 5.5e-06 110.477 2.71937e+22 265.411 99.6486 
29 5.7e-06 110.35 2.71624e+22 265.799 99.6792 
30 5.9e-06 110.251 2.7138e+22 265.726 99.5625 
31 6.1e-06 110.436 2.71837e+22 265.553 99.6649 
32 6.3e-06 109.831 2.70346e+22 266.447 99.4519 
33 6.5e-06 109.734 2.70108e+22 266.87 99.5221 
34 6.7e-06 109.813 2.70301e+22 266.781 99.5604 
35 6.9e-06 109.666 2.6994e+22 267.106 99.5485 
36 7.1e-06 109.792 2.70251e+22 267.177 99.6895 
37 7.3e-06 109.53 2.69604e+22 267.59 99.6046 
38 7.5e-06 109.216 2.68833e+22 268.011 99.4762 
39 7.7e-06 109.294 2.69025e+22 268.611 99.7697 
40 7.9e-06 109.16 2.68694e+22 269.233 99.878 
41 8.1e-06 108.979 2.6825e+22 269.515 99.8172 
42 8.3e-06 108.964 2.68212e+22 269.662 99.8574 
43 8.5e-06 108.856 2.67946e+22 270.26 99.9799 
44 8.7e-06 108.758 2.67706e+22 270.613 100.021 
45 8.9e-06 108.696 2.67552e+22 270.784 100.027 
46 9.1e-06 108.687 2.67532e+22 270.816 100.03 
47 9.3e-06 108.509 2.67092e+22 271.123 99.9794 
48 9.5e-06 108.416 2.66864e+22 271.495 100.031 
49 9.7e-06 108.213 2.66365e+22 271.793 99.9536 
50 9.9e-06 108.354 2.66711e+22 271.902 100.123 
51 1.01e-05 108.315 2.66615e+22 272.531 100.319 
52 1.03e-05 108.041 2.65939e+22 273.158 100.295 
53 1.05e-05 107.875 2.65532e+22 273.589 100.299 
54 1.07e-05 108.016 2.6588e+22 273.195 100.286 
55 1.09e-05 107.876 2.65534e+22 273.78 100.37 
56 1.11e-05 107.747 2.65216e+22 273.66 100.206 
57 1.13e-05 107.687 2.6507e+22 273.912 100.243 
58 1.15e-05 107.274 2.64052e+22 274.618 100.116 
59 1.17e-05 107.137 2.63714e+22 275.123 100.171 
60 1.19e-05 107.199 2.63867e+22 275.11 100.225 
61 1.21e-05 107.14 2.63723e+22 275.352 100.258 
62 1.23e-05 107.32 2.64166e+22 275.33 100.418 
63 1.25e-05 107.138 2.63718e+22 275.462 100.296 
64 1.27e-05 107.13 2.63698e+22 275.878 100.44 
65 1.29e-05 106.799 2.62884e+22 276.359 100.304 
66 1.31e-05 106.817 2.62927e+22 276.776 100.472 
67 1.33e-05 106.643 2.62498e+22 276.699 100.281 
68 1.35e-05 106.646 2.62506e+22 277.068 100.418 
69 1.37e-05 106.299 2.61653e+22 277.608 100.286 
70 1.39e-05 106.42 2.61951e+22 277.313 100.294 
71 1.41e-05 106.197 2.61401e+22 278.055 100.351 
72 1.43e-05 106.139 2.61258e+22 278.258 100.369 
73 1.45e-05 105.998 2.60912e+22 278.304 100.253 
74 1.47e-05 105.876 2.60611e+22 278.865 100.339 
75 1.49e-05 105.869 2.60594e+22 279.297 100.488 
76 1.51e-05 105.86 2.60571e+22 279.839 100.674 
77 1.53e-05 106.015 2.60954e+22 279.774 100.799 
78 1.55e-05 105.796 2.60414e+22 280.021 100.679 
79 1.57e-05 105.679 2.60125e+22 280.261 100.653 
80 1.59e-05 105.712 2.60207e+22 280.641 100.822 
81 1.61e-05 105.582 2.59889e+22 280.746 100.736 
82 1.63e-05 105.495 2.59674e+22 281.1 100.78 
83 1.65e-05 105.325 2.59256e+22 281.394 100.722 
84 1.67e-05 105.194 2.58932e+22 281.675 100.697 
85 1.69e-05 105.162 2.58854e+22 281.446 100.585 
86 1.71e-05 104.944 2.58317e+22 282.1 100.609 
87 1.73e-05 104.826 2.58028e+22 282.255 100.552 
88 1.75e-05 104.762 2.57868e+22 282.72 100.656 
89 1.77e-05 104.84 2.58061e+22 282.992 100.828 
90 1.79e-05 104.937 2.58299e+22 282.99 100.92 
91 1.81e-05 104.579 2.57418e+22 284.005 100.936 
92 1.83e-05 104.592 2.57451e+22 283.891 100.909 
93 1.85e-05 104.461 2.57129e+22 284.363 100.95 
94 1.87e-05 104.349 2.56853e+22 284.793 100.995 
95 1.89e-05 104.242 2.5659e+22 285.106 101.002 
96 1.91e-05 104.089 2.56212e+22 285.647 101.045 
97 1.93e-05 104.04 2.56092e+22 285.486 100.94 
98 1.95e-05 103.782 2.55457e+22 285.73 100.776 
99 1.97e-05 103.73 2.55329e+22 286.003 100.822 
100 1.99e-05 103.685 2.55218e+22 285.953 100.76 
101 2.01e-05 103.752 2.55382e+22 286.36 100.969 
102 2.03e-05 103.474 2.54698e+22 286.718 100.824 
103 2.05e-05 103.391 2.54493e+22 286.978 100.834 
104 2.07e-05 103.413 2.5455e+22 286.747 100.775 
105 2.09e-05 103.32 2.5432e+22 287.023 100.781 
106 2.11e-05 103.075 2.53716e+22 287.375 100.665 
107 2.13e-05 103.086 2.53744e+22 287.449 100.703 
108 2.15e-05 103.143 2.53884e+22 287.922 100.924 
109 2.17e-05 103.133 2.53859e+22 288.443 101.096 
110 2.19e-05 102.874 2.53221e+22 289.051 101.055 
111 2.21e-05 102.841 2.53141e+22 289.211 101.079 
112 2.23e-05 102.679 2.52741e+22 289.255 100.935 
113 2.25e-05 102.735 2.52879e+22 288.873 100.856 
114 2.27e-05 102.567 2.52465e+22 289.066 100.758 
115 2.29e-05 102.431 2.52131e+22 289.517 100.782 
116 2.31e-05 102.483 2.5226e+22 289.663 100.885 
117 2.33e-05 102.189 2.51536e+22 289.929 100.687 
118 2.35e-05 102.103 2.51325e+22 290.507 100.803 
119 2.37e-05 102.222 2.51617e+22 290.532 100.929 
120 2.39e-05 102.074 2.51253e+22 290.998 100.945 
121 2.41e-05 102.102 2.51322e+22 291.35 101.095 
122 2.43e-05 102.088 2.51287e+22 291.257 101.048 
123 2.45e-05 101.903 2.50832e+22 291.486 100.945 
124 2.47e-05 101.688 2.50301e+22 292.158 100.964 
125 2.49e-05 101.734 2.50417e+22 291.91 100.924 
126 2.51e-05 101.597 2.50078e+22 292.759 101.081 
127 2.53e-05 101.474 2.49776e+22 293.113 101.081 
128 2.55e-05 101.454 2.49726e+22 293.124 101.064 
129 2.57e-05 101.211 2.49129e+22 293.559 100.972 
130 2.59e-05 101.074 2.48792e+22 294.041 101.001 
131 2.61e-05 100.943 2.48468e+22 294.663 101.083 
132 2.63e-05 100.863 2.48273e+22 294.971 101.109 
133 2.65e-05 100.833 2.48197e+22 294.946 101.07 
134 2.67e-05 100.799 2.48115e+22 295.481 101.22 
135 2.69e-05 101.008 2.48628e+22 295.023 101.272 
136 2.71e-05 100.799 2.48115e+22 295.526 101.235 
137 2.73e-05 100.796 2.48107e+22 295.848 101.342 
138 2.75e-05 100.584 2.47586e+22 296.115 101.221 
139 2.77e-05 100.29 2.46861e+22 296.769 101.147 
140 2.79e-05 100.136 2.46482e+22 297.041 101.085 
141 2.81e-05 100.249 2.46761e+22 297.254 101.271 
142 2.83e-05 100.107 2.4641e+22 297.615 101.25 
143 2.85e-05 100.088 2.46365e+22 298.001 101.363 
144 2.87e-05 99.952 2.4603e+22 298.145 101.274 
145 2.89e-05 99.9941 2.46133e+22 298.278 101.362 
146 2.91e-05 99.9038 2.45911e+22 298.23 101.254 
147 2.93e-05 99.7614 2.4556e+22 298.816 101.309 
148 2.95e-05 99.8252 2.45717e+22 298.793 101.365 
149 2.97e-05 99.4969 2.44909e+22 299.345 101.219 
150 2.99e-05 99.5736 2.45098e+22 299.423 101.323 
151 3.01e-05 99.5479 2.45035e+22 299.581 101.35 
152 3.03e-05 99.5424 2.45021e+22 299.695 101.383 
153 3.05e-05 99.4513 2.44797e+22 300.545 101.578 
154 3.07e-05 99.2403 2.44278e+22 300.914 101.487 
155 3.09e-05 99.2577 2.44321e+22 301.244 101.616 
156 3.11e-05 99.3661 2.44587e+22 301.056 101.663 
157 3.13e-05 99.1311 2.44009e+22 301.534 101.584 
158 3.15e-05 99.1402 2.44031e+22 301.494 101.58 
159 3.17e-05 98.9352 2.43527e+22 302.259 101.627 
160 3.19e-05 98.7184 2.42993e+22 302.57 101.509 
161 3.21e-05 98.4841 2.42416e+22 303.123 101.453 
162 3.23e-05 98.4279 2.42278e+22 303.79 101.618 
163 3.25e-05 98.3383 2.42057e+22 303.646 101.477 
164 3.27e-05 98.3207 2.42014e+22 303.866 101.533 
165 3.29e-05 98.1734 2.41652e+22 303.962 101.413 
166 3.31e-05 98.1282 2.4154e+22 304.586 101.574 
167 3.33e-05 98.1533 2.41602e+22 305.098 101.771 
168 3.35e-05 98.0746 2.41408e+22 305.191 101.72 
169 3.37e-05 97.9478 2.41096e+22 305.182 101.586 
170 3.39e-05 97.8279 2.40801e+22 305.83 101.677 
171 3.41e-05 97.8281 2.40802e+22 306.02 101.74 
172 3.43e-05 97.7979 2.40727e+22 306.233 101.779 
173 3.45e-05 97.7668 2.40651e+22 306.646 101.885 
174 3.47e-05 97.7657 2.40648e+22 306.631 101.878 
175 3.49e-05 97.7409 2.40587e+22 306.835 101.92 
176 3.51e-05 97.4245 2.39808e+22 307.353 101.762 
177 3.53e-05 97.2818 2.39457e+22 307.746 101.743 
178 3.55e-05 97.1363 2.39099e+22 308.115 101.712 
179 3.57e-05 96.8254 2.38333e+22 308.803 101.613 
180 3.59e-05 96.8034 2.38279e+22 309.332 101.764 
181 3.61e-05 96.9881 2.38734e+22 309.57 102.037 
182 3.63e-05 96.7461 2.38138e+22 310.101 101.957 
183 3.65e-05 96.7763 2.38213e+22 310.138 102.001 
184 3.67e-05 96.5196 2.37581e+22 310.414 101.821 
185 3.69e-05 96.5429 2.37638e+22 310.512 101.877 
186 3.71e-05 96.3961 2.37277e+22 311.059 101.902 
187 3.73e-05 96.3119 2.37069e+22 311.415 101.929 
188 3.75e-05 96.0979 2.36543e+22 312.198 101.958 
189 3.77e-05 96.1404 2.36647e+22 312.192 102.002 
190 3.79e-05 96.056 2.3644e+22 313.085 102.204 
191 3.81e-05 95.8813 2.3601e+22 313.107 102.025 
192 3.83e-05 95.952 2.36183e+22 313.594 102.259 
193 3.85e-05 95.9334 2.36138e+22 313.973 102.363 
194 3.87e-05 95.7583 2.35707e+22 314.21 102.253 
195 3.89e-05 95.4552 2.34961e+22 314.74 102.101 
196 3.91e-05 95.467 2.3499e+22 315.013 102.202 
197 3.93e-05 95.2403 2.34432e+22 315.438 102.097 
198 3.95e-05 95.052 2.33968e+22 316.174 102.133 
199 3.97e-05 94.9422 2.33698e+22 317.088 102.31 
200 3.99e-05 94.5903 2.32832e+22 317.232 101.977 
