ITEM: TIMESTEP
300000
ITEM: NUMBER OF CELLS
200
ITEM: BOX BOUNDS pp ss pp
0 0.0001
0 4e-05
0 0.0001
ITEM: CELLS id yc f_rho[1] f_rho[2] f_state[1] f_state[2] 
1 1e-07 112.404 2.82921e+22 254.463 99.3968 
2 3e-07 110.982 2.81809e+22 255.507 99.4124 
3 5e-07 110.375 2.8149e+22 256.256 99.591 
4 7e-07 109.922 2.80451e+22 256.923 99.4816 
5 9e-07 109.629 2.79437e+22 257.772 99.4497 
6 1.1e-06 109.578 2.79362e+22 258.161 99.5729 
7 1.3e-06 109.434 2.78807e+22 258.576 99.5348 
8 1.5e-06 109.306 2.78116e+22 259.148 99.5075 
9 1.7e-06 109.33 2.78006e+22 259.567 99.6295 
10 1.9e-06 109.207 2.77352e+22 260.145 99.6163 
11 2.1e-06 109.202 2.76795e+22 260.52 99.5596 
12 2.3e-06 109.217 2.76645e+22 260.853 99.6327 
13 2.5e-06 109.202 2.76453e+22 261.315 99.7401 
14 2.7e-06 109.057 2.75638e+22 261.872 99.6576 
15 2.9e-06 109.028 2.75208e+22 262.297 99.6638 
16 3.1e-06 109.11 2.75143e+22 262.694 99.7913 
17 3.3e-06 108.968 2.74247e+22 262.865 99.5309 
18 3.5e-06 108.943 2.7396e+22 263.303 99.5923 
19 3.7e-06 109.054 2.74065e+22 263.686 99.7757 
20 3.9e-06 108.967 2.73697e+22 263.98 99.7527 
21 4.1e-06 109.041 2.73669e+22 264.42 99.9083 
22 4.3e-06 109.057 2.73522e+22 264.656 99.9441 
23 4.5e-06 108.994 2.73251e+22 264.947 99.9551 
24 4.7e-06 108.873 2.72548e+22 265.661 99.9664 
25 4.9e-06 108.969 2.72675e+22 265.904 100.104 
26 5.1e-06 108.894 2.72118e+22 266.305 100.051 
27 5.3e-06 108.853 2.71581e+22 266.994 100.111 
28 5.5e-06 108.809 2.71245e+22 267.261 100.088 
29 5.7e-06 108.845 2.7118e+22 267.567 100.178 
30 5.9e-06 108.78 2.7087e+22 267.703 100.115 
31 6.1e-06 108.767 2.70443e+22 267.848 100.011 
32 6.3e-06 108.934 2.70586e+22 268.073 100.148 
33 6.5e-06 108.963 2.70514e+22 268.358 100.228 
34 6.7e-06 108.87 2.70055e+22 268.889 100.256 
35 6.9e-06 108.854 2.69942e+22 269.362 100.39 
36 7.1e-06 108.925 2.69798e+22 269.459 100.372 
37 7.3e-06 108.79 2.68969e+22 269.955 100.248 
38 7.5e-06 108.934 2.69198e+22 270.072 100.377 
39 7.7e-06 108.931 2.69015e+22 270.143 100.335 
40 7.9e-06 108.847 2.68446e+22 270.551 100.274 
41 8.1e-06 108.748 2.67945e+22 270.991 100.25 
42 8.3e-06 108.718 2.67518e+22 271.368 100.229 
43 8.5e-06 108.752 2.67485e+22 271.671 100.329 
44 8.7e-06 108.803 2.67534e+22 271.682 100.351 
45 8.9e-06 108.818 2.67332e+22 272.01 100.397 
46 9.1e-06 108.814 2.67004e+22 272.662 100.514 
47 9.3e-06 108.79 2.66719e+22 273.101 100.568 
48 9.5e-06 108.812 2.66688e+22 273.168 100.581 
49 9.7e-06 108.842 2.66548e+22 273.574 100.678 
50 9.9e-06 108.769 2.66025e+22 273.868 100.588 
51 1.01e-05 108.838 2.65937e+22 274.205 100.679 
52 1.03e-05 108.776 2.65471e+22 274.529 100.621 
53 1.05e-05 108.839 2.6525e+22 275.03 100.721 
54 1.07e-05 108.766 2.64896e+22 275.286 100.68 
55 1.09e-05 108.784 2.64809e+22 275.527 100.735 
56 1.11e-05 108.844 2.64668e+22 275.647 100.725 
57 1.13e-05 108.803 2.64294e+22 275.876 100.667 
58 1.15e-05 108.637 2.63582e+22 276.345 100.566 
59 1.17e-05 108.672 2.63289e+22 276.495 100.508 
60 1.19e-05 108.726 2.633e+22 276.599 100.551 
61 1.21e-05 108.695 2.62938e+22 276.905 100.524 
62 1.23e-05 108.673 2.6284e+22 277.116 100.563 
63 1.25e-05 108.713 2.62878e+22 277.219 100.614 
64 1.27e-05 108.769 2.62741e+22 277.376 100.619 
65 1.29e-05 108.774 2.62387e+22 278.305 100.82 
66 1.31e-05 108.572 2.61751e+22 278.643 100.698 
67 1.33e-05 108.565 2.61504e+22 278.632 100.599 
68 1.35e-05 108.663 2.61381e+22 278.995 100.683 
69 1.37e-05 108.609 2.61121e+22 279.314 100.697 
70 1.39e-05 108.659 2.6115e+22 279.086 100.626 
71 1.41e-05 108.594 2.60848e+22 279.325 100.596 
72 1.43e-05 108.713 2.61012e+22 279.491 100.719 
73 1.45e-05 108.587 2.60499e+22 279.907 100.671 
74 1.47e-05 108.597 2.60477e+22 280.198 100.767 
75 1.49e-05 108.682 2.60548e+22 280.425 100.876 
76 1.51e-05 108.665 2.60198e+22 280.632 100.815 
77 1.53e-05 108.641 2.5991e+22 281.111 100.875 
78 1.55e-05 108.633 2.59709e+22 281.27 100.854 
79 1.57e-05 108.79 2.59846e+22 281.378 100.946 
80 1.59e-05 108.581 2.59158e+22 281.839 100.844 
81 1.61e-05 108.682 2.59299e+22 282.266 101.052 
82 1.63e-05 108.562 2.58764e+22 282.698 100.997 
83 1.65e-05 108.611 2.58708e+22 283.157 101.139 
84 1.67e-05 108.708 2.58721e+22 283.307 101.198 
85 1.69e-05 108.566 2.58238e+22 283.192 100.968 
86 1.71e-05 108.552 2.58072e+22 283.648 101.065 
87 1.73e-05 108.615 2.58087e+22 283.571 101.044 
88 1.75e-05 108.514 2.57405e+22 284.063 100.952 
89 1.77e-05 108.526 2.57217e+22 284.17 100.916 
90 1.79e-05 108.524 2.56971e+22 284.528 100.947 
91 1.81e-05 108.544 2.56718e+22 285.329 101.131 
92 1.83e-05 108.566 2.56645e+22 285.316 101.098 
93 1.85e-05 108.589 2.56549e+22 285.781 101.224 
94 1.87e-05 108.59 2.56423e+22 285.844 101.197 
95 1.89e-05 108.551 2.56191e+22 286.111 101.201 
96 1.91e-05 108.6 2.56105e+22 286.299 101.233 
97 1.93e-05 108.535 2.55707e+22 286.288 101.071 
98 1.95e-05 108.504 2.55573e+22 286.582 101.123 
99 1.97e-05 108.621 2.55581e+22 286.818 101.209 
100 1.99e-05 108.602 2.55323e+22 287.204 101.243 
101 2.01e-05 108.397 2.5456e+22 287.782 101.143 
102 2.03e-05 108.487 2.54645e+22 287.791 101.18 
103 2.05e-05 108.458 2.54441e+22 287.86 101.123 
104 2.07e-05 108.654 2.54678e+22 288.219 101.344 
105 2.09e-05 108.62 2.54743e+22 288.416 101.439 
106 2.11e-05 108.493 2.54315e+22 288.873 101.429 
107 2.13e-05 108.459 2.53998e+22 288.893 101.31 
108 2.15e-05 108.541 2.53878e+22 289.196 101.368 
109 2.17e-05 108.494 2.53608e+22 289.56 101.388 
110 2.19e-05 108.464 2.53465e+22 289.868 101.438 
111 2.21e-05 108.431 2.53225e+22 290.271 101.483 
112 2.23e-05 108.513 2.53262e+22 290.315 101.513 
113 2.25e-05 108.402 2.5287e+22 290.407 101.388 
114 2.27e-05 108.453 2.52805e+22 290.699 101.464 
115 2.29e-05 108.484 2.5255e+22 290.854 101.416 
116 2.31e-05 108.407 2.52247e+22 291.477 101.511 
117 2.33e-05 108.456 2.52205e+22 291.515 101.507 
118 2.35e-05 108.434 2.51943e+22 291.832 101.512 
119 2.37e-05 108.358 2.51717e+22 292.258 101.57 
120 2.39e-05 108.424 2.5176e+22 292.25 101.584 
121 2.41e-05 108.353 2.51447e+22 292.671 101.603 
122 2.43e-05 108.44 2.51402e+22 292.959 101.685 
123 2.45e-05 108.458 2.5118e+22 293.254 101.698 
124 2.47e-05 108.38 2.50775e+22 293.318 101.556 
125 2.49e-05 108.471 2.5074e+22 293.432 101.582 
126 2.51e-05 108.453 2.50564e+22 293.725 101.612 
127 2.53e-05 108.42 2.50177e+22 294.13 101.594 
128 2.55e-05 108.425 2.49962e+22 294.586 101.664 
129 2.57e-05 108.468 2.49876e+22 295.026 101.782 
130 2.59e-05 108.471 2.49635e+22 295.305 101.78 
131 2.61e-05 108.434 2.49413e+22 295.371 101.711 
132 2.63e-05 108.431 2.49228e+22 295.649 101.732 
133 2.65e-05 108.461 2.49241e+22 295.866 101.812 
134 2.67e-05 108.304 2.4871e+22 296.38 101.771 
135 2.69e-05 108.407 2.48844e+22 296.511 101.871 
136 2.71e-05 108.371 2.486e+22 296.515 101.773 
137 2.73e-05 108.418 2.48428e+22 296.925 101.843 
138 2.75e-05 108.283 2.47917e+22 297.431 101.807 
139 2.77e-05 108.415 2.48166e+22 297.615 101.972 
140 2.79e-05 108.532 2.4823e+22 297.784 102.056 
141 2.81e-05 108.479 2.47919e+22 298.075 102.028 
142 2.83e-05 108.311 2.47184e+22 298.398 101.836 
143 2.85e-05 108.367 2.4716e+22 298.623 101.903 
144 2.87e-05 108.497 2.47374e+22 298.686 102.012 
145 2.89e-05 108.382 2.46942e+22 299.266 102.032 
146 2.91e-05 108.377 2.46834e+22 299.261 101.985 
147 2.93e-05 108.318 2.46669e+22 299.687 102.062 
148 2.95e-05 108.394 2.46625e+22 299.802 102.083 
149 2.97e-05 108.337 2.46052e+22 299.872 101.87 
150 2.99e-05 108.281 2.45534e+22 300.372 101.825 
151 3.01e-05 108.399 2.45675e+22 300.267 101.848 
152 3.03e-05 108.356 2.45435e+22 300.779 101.922 
153 3.05e-05 108.356 2.45199e+22 301.028 101.908 
154 3.07e-05 108.434 2.45254e+22 301.483 102.085 
155 3.09e-05 108.394 2.44778e+22 302.079 102.088 
156 3.11e-05 108.287 2.44286e+22 302.568 102.048 
157 3.13e-05 108.324 2.44096e+22 302.778 102.039 
158 3.15e-05 108.372 2.4402e+22 302.662 101.969 
159 3.17e-05 108.358 2.43737e+22 303.186 102.026 
160 3.19e-05 108.221 2.43196e+22 303.612 101.943 
161 3.21e-05 108.218 2.43092e+22 303.84 101.976 
162 3.23e-05 108.256 2.43215e+22 304.092 102.112 
163 3.25e-05 108.362 2.4331e+22 304.17 102.179 
164 3.27e-05 108.254 2.42822e+22 304.6 102.118 
165 3.29e-05 108.254 2.42574e+22 304.751 102.064 
166 3.31e-05 108.155 2.41982e+22 305.267 101.987 
167 3.33e-05 108.138 2.41734e+22 305.396 101.926 
168 3.35e-05 108.071 2.41361e+22 305.982 101.964 
169 3.37e-05 108.183 2.41451e+22 306.234 102.086 
170 3.39e-05 108.078 2.41012e+22 306.888 102.118 
171 3.41e-05 108.17 2.40994e+22 306.967 102.136 
172 3.43e-05 108.27 2.40986e+22 307.243 102.225 
173 3.45e-05 108.201 2.40609e+22 307.956 102.302 
174 3.47e-05 108.201 2.40445e+22 308.17 102.304 
175 3.49e-05 108.186 2.40265e+22 308.551 102.353 
176 3.51e-05 108.098 2.39827e+22 308.733 102.227 
177 3.53e-05 108.055 2.39466e+22 309.05 102.178 
178 3.55e-05 108.097 2.39435e+22 309.489 102.309 
179 3.57e-05 108.174 2.39351e+22 309.678 102.336 
180 3.59e-05 108.06 2.38889e+22 310.337 102.356 
181 3.61e-05 108.091 2.38927e+22 310.617 102.464 
182 3.63e-05 108.091 2.38776e+22 310.741 102.441 
183 3.65e-05 108.089 2.38379e+22 311.164 102.41 
184 3.67e-05 108.081 2.38144e+22 311.542 102.433 
185 3.69e-05 108.059 2.37949e+22 311.863 102.455 
186 3.71e-05 108.031 2.37717e+22 312.207 102.468 
187 3.73e-05 107.96 2.37345e+22 312.559 102.422 
188 3.75e-05 108.049 2.37379e+22 313.136 102.626 
189 3.77e-05 107.937 2.37096e+22 313.389 102.587 
190 3.79e-05 107.984 2.36778e+22 314.056 102.667 
191 3.81e-05 107.939 2.36156e+22 314.527 102.551 
192 3.83e-05 107.892 2.36005e+22 314.94 102.62 
193 3.85e-05 107.824 2.35597e+22 315.476 102.617 
194 3.87e-05 107.861 2.35526e+22 315.562 102.614 
195 3.89e-05 107.716 2.3497e+22 316.129 102.556 
196 3.91e-05 107.771 2.34899e+22 316.15 102.532 
197 3.93e-05 107.772 2.34649e+22 316.703 102.602 
198 3.95e-05 107.61 2.34149e+22 317.299 102.576 
199 3.97e-05 107.494 2.33566e+22 318.132 102.589 
200 3.99e-05 107.507 2.33133e+22 318.936 102.658 
