ITEM: TIMESTEP
200000
ITEM: NUMBER OF CELLS
1000
ITEM: BOX BOUNDS pp ss pp
0 0.0001
0 4e-05
0 0.0001
ITEM: CELLS id yc f_rho[1] f_rho[2] f_state[1] f_state[2] 
1 2e-08 108.52 2.83814e+22 253.594 99.3704 
2 6e-08 107.933 2.83545e+22 253.924 99.4053 
3 1e-07 107.462 2.83084e+22 254.002 99.2742 
4 1.4e-07 107.081 2.82521e+22 254.559 99.294 
5 1.8e-07 106.886 2.82299e+22 254.665 99.2571 
6 2.2e-07 106.672 2.81901e+22 255.082 99.2794 
7 2.6e-07 106.561 2.81866e+22 255.247 99.3313 
8 3e-07 106.468 2.81821e+22 255.28 99.3282 
9 3.4e-07 106.257 2.81499e+22 255.588 99.3347 
10 3.8e-07 106.27 2.81666e+22 255.513 99.3645 
11 4.2e-07 106.199 2.81602e+22 255.599 99.3755 
12 4.6e-07 105.985 2.80945e+22 255.818 99.2285 
13 5e-07 105.942 2.80782e+22 256.129 99.2914 
14 5.4e-07 105.815 2.80489e+22 256.393 99.2899 
15 5.8e-07 105.85 2.8065e+22 256.219 99.2795 
16 6.2e-07 105.818 2.80603e+22 256.294 99.2918 
17 6.6e-07 105.842 2.8066e+22 256.584 99.4247 
18 7e-07 105.677 2.79985e+22 256.809 99.2725 
19 7.4e-07 105.686 2.80047e+22 256.705 99.2539 
20 7.8e-07 105.722 2.79984e+22 257.082 99.3772 
21 8.2e-07 105.723 2.79861e+22 257.223 99.3881 
22 8.6e-07 105.65 2.79725e+22 257.388 99.4037 
23 9e-07 105.602 2.79703e+22 257.328 99.373 
24 9.4e-07 105.789 2.80267e+22 257.493 99.6371 
25 9.8e-07 105.671 2.79862e+22 257.455 99.4781 
26 1.02e-06 105.608 2.79467e+22 257.662 99.4179 
27 1.06e-06 105.627 2.79455e+22 258.061 99.5674 
28 1.1e-06 105.593 2.79303e+22 257.904 99.4527 
29 1.14e-06 105.515 2.79131e+22 257.837 99.3658 
30 1.18e-06 105.562 2.79202e+22 258.09 99.4885 
31 1.22e-06 105.508 2.7906e+22 258.295 99.517 
32 1.26e-06 105.529 2.79176e+22 258.296 99.5587 
33 1.3e-06 105.486 2.79002e+22 258.229 99.4705 
34 1.34e-06 105.467 2.78881e+22 258.367 99.4808 
35 1.38e-06 105.445 2.78696e+22 258.532 99.4782 
36 1.42e-06 105.426 2.78593e+22 258.953 99.6032 
37 1.46e-06 105.478 2.78644e+22 258.67 99.5128 
38 1.5e-06 105.418 2.78477e+22 258.748 99.4831 
39 1.54e-06 105.355 2.78231e+22 258.79 99.4113 
40 1.58e-06 105.392 2.7836e+22 259.037 99.5526 
41 1.62e-06 105.342 2.78122e+22 259.132 99.5037 
42 1.66e-06 105.389 2.78149e+22 259.311 99.5821 
43 1.7e-06 105.434 2.7815e+22 259.122 99.5102 
44 1.74e-06 105.416 2.7791e+22 259.344 99.5091 
45 1.78e-06 105.359 2.77681e+22 259.392 99.4457 
46 1.82e-06 105.404 2.77679e+22 259.529 99.4973 
47 1.86e-06 105.33 2.77603e+22 259.541 99.4748 
48 1.9e-06 105.263 2.77265e+22 259.73 99.4262 
49 1.94e-06 105.284 2.77287e+22 259.722 99.4311 
50 1.98e-06 105.33 2.77445e+22 259.806 99.5198 
51 2.02e-06 105.316 2.77375e+22 259.775 99.4827 
52 2.06e-06 105.275 2.77199e+22 260.099 99.5438 
53 2.1e-06 105.259 2.77049e+22 260.176 99.5192 
54 2.14e-06 105.237 2.76905e+22 260.181 99.4694 
55 2.18e-06 105.351 2.77203e+22 260.243 99.6001 
56 2.22e-06 105.26 2.77004e+22 260.21 99.5163 
57 2.26e-06 105.34 2.76926e+22 260.358 99.5445 
58 2.3e-06 105.328 2.76909e+22 260.398 99.554 
59 2.34e-06 105.306 2.76767e+22 260.635 99.5934 
60 2.38e-06 105.289 2.76747e+22 260.597 99.5719 
61 2.42e-06 105.223 2.76509e+22 260.708 99.5281 
62 2.46e-06 105.287 2.76526e+22 260.811 99.5738 
63 2.5e-06 105.265 2.76334e+22 261.144 99.6319 
64 2.54e-06 105.281 2.76445e+22 261.153 99.675 
65 2.58e-06 105.247 2.76225e+22 261.209 99.6169 
66 2.62e-06 105.196 2.75854e+22 261.303 99.5191 
67 2.66e-06 105.252 2.76111e+22 261.363 99.6346 
68 2.7e-06 105.211 2.75768e+22 261.335 99.5004 
69 2.74e-06 105.126 2.75455e+22 261.69 99.5224 
70 2.78e-06 105.217 2.75796e+22 261.72 99.6571 
71 2.82e-06 105.125 2.7564e+22 261.433 99.4915 
72 2.86e-06 105.153 2.75516e+22 261.96 99.6471 
73 2.9e-06 105.123 2.75396e+22 261.758 99.5272 
74 2.94e-06 105.23 2.7573e+22 261.914 99.7073 
75 2.98e-06 105.205 2.75373e+22 261.92 99.5801 
76 3.02e-06 105.242 2.75657e+22 262.15 99.7708 
77 3.06e-06 105.16 2.75198e+22 262.221 99.6312 
78 3.1e-06 105.172 2.75175e+22 262.211 99.6192 
79 3.14e-06 105.103 2.74901e+22 262.318 99.5605 
80 3.18e-06 105.169 2.75042e+22 262.312 99.6094 
81 3.22e-06 105.211 2.75103e+22 262.451 99.6844 
82 3.26e-06 105.129 2.74774e+22 262.743 99.676 
83 3.3e-06 105.062 2.74719e+22 262.647 99.6195 
84 3.34e-06 105.114 2.74749e+22 262.62 99.6202 
85 3.38e-06 105.208 2.74886e+22 262.807 99.741 
86 3.42e-06 105.2 2.74834e+22 262.895 99.7554 
87 3.46e-06 105.213 2.74787e+22 262.891 99.7369 
88 3.5e-06 105.221 2.74762e+22 263.028 99.7797 
89 3.54e-06 105.166 2.7469e+22 263.04 99.7581 
90 3.58e-06 105.171 2.74649e+22 263.439 99.8945 
91 3.62e-06 105.13 2.74407e+22 263.142 99.694 
92 3.66e-06 105.21 2.74611e+22 263.492 99.9005 
93 3.7e-06 105.142 2.74292e+22 263.607 99.8282 
94 3.74e-06 105.247 2.74606e+22 263.521 99.9098 
95 3.78e-06 105.186 2.74401e+22 263.605 99.8668 
96 3.82e-06 105.046 2.74022e+22 263.762 99.7883 
97 3.86e-06 105.11 2.74017e+22 263.839 99.8158 
98 3.9e-06 105.141 2.74234e+22 264.144 100.01 
99 3.94e-06 105.101 2.73942e+22 264.017 99.8556 
100 3.98e-06 105.188 2.74001e+22 263.881 99.8259 
101 4.02e-06 105.246 2.74207e+22 263.84 99.8858 
102 4.06e-06 105.179 2.73837e+22 264.035 99.8245 
103 4.1e-06 105.198 2.73838e+22 264.304 99.9263 
104 4.14e-06 105.234 2.7385e+22 264.272 99.9187 
105 4.18e-06 105.235 2.73854e+22 264.419 99.9759 
106 4.22e-06 105.171 2.73523e+22 264.274 99.8004 
107 4.26e-06 105.097 2.7341e+22 264.44 99.8214 
108 4.3e-06 105.066 2.73306e+22 264.621 99.8519 
109 4.34e-06 105.014 2.73135e+22 264.502 99.7445 
110 4.38e-06 105.02 2.73173e+22 264.522 99.7661 
111 4.42e-06 105.17 2.73612e+22 264.729 100.004 
112 4.46e-06 105.138 2.73476e+22 264.645 99.9231 
113 4.5e-06 105.136 2.73354e+22 264.853 99.9572 
114 4.54e-06 105.172 2.73385e+22 265.059 100.046 
115 4.58e-06 105.17 2.73288e+22 265.224 100.073 
116 4.62e-06 105.124 2.73086e+22 265.191 99.9863 
117 4.66e-06 105.051 2.72819e+22 265.11 99.858 
118 4.7e-06 105.133 2.7298e+22 264.968 99.8637 
119 4.74e-06 105.098 2.72786e+22 265.138 99.8567 
120 4.78e-06 105.117 2.72661e+22 265.425 99.919 
121 4.82e-06 105.02 2.72355e+22 265.305 99.7618 
122 4.86e-06 105.091 2.72525e+22 265.342 99.8376 
123 4.9e-06 105.034 2.72305e+22 265.571 99.8435 
124 4.94e-06 105.026 2.72171e+22 265.747 99.8604 
125 4.98e-06 105.057 2.7235e+22 265.463 99.8195 
126 5.02e-06 105.177 2.72577e+22 265.753 100.012 
127 5.06e-06 105.186 2.72622e+22 265.714 100.013 
128 5.1e-06 105.185 2.72562e+22 265.806 100.026 
129 5.14e-06 105.16 2.72464e+22 265.831 99.9996 
130 5.18e-06 105.15 2.7239e+22 266.054 100.056 
131 5.22e-06 105.143 2.72249e+22 266.086 100.016 
132 5.26e-06 105.08 2.71977e+22 266.206 99.9617 
133 5.3e-06 105.046 2.71857e+22 266.239 99.9297 
134 5.34e-06 105.085 2.71825e+22 266.162 99.8894 
135 5.38e-06 105.043 2.71802e+22 266.477 99.9986 
136 5.42e-06 105.053 2.71767e+22 266.499 99.9945 
137 5.46e-06 105.127 2.71781e+22 266.432 99.9744 
138 5.5e-06 105.067 2.71589e+22 266.399 99.8913 
139 5.54e-06 105.146 2.71752e+22 266.57 100.015 
140 5.58e-06 105.199 2.71846e+22 266.654 100.082 
141 5.62e-06 105.106 2.71529e+22 266.59 99.941 
142 5.66e-06 105.09 2.71373e+22 266.792 99.9595 
143 5.7e-06 105.149 2.71551e+22 266.753 100.01 
144 5.74e-06 105.14 2.71468e+22 266.734 99.9723 
145 5.78e-06 105.092 2.71313e+22 267.082 100.046 
146 5.82e-06 105.042 2.71048e+22 267.233 100.004 
147 5.86e-06 105.023 2.71076e+22 267.214 100.008 
148 5.9e-06 105.098 2.71161e+22 267.383 100.102 
149 5.94e-06 105.157 2.7132e+22 267.243 100.109 
150 5.98e-06 105.048 2.70957e+22 267.221 99.9665 
151 6.02e-06 105.097 2.71128e+22 267.346 100.077 
152 6.06e-06 105.068 2.70852e+22 267.561 100.055 
153 6.1e-06 105.025 2.70695e+22 267.518 99.9805 
154 6.14e-06 105.077 2.70783e+22 267.553 100.026 
155 6.18e-06 105.045 2.70609e+22 267.733 100.029 
156 6.22e-06 105.072 2.70658e+22 267.715 100.041 
157 6.26e-06 105.036 2.70457e+22 267.512 99.8906 
158 6.3e-06 105.057 2.70319e+22 267.757 99.9312 
159 6.34e-06 104.993 2.70311e+22 267.789 99.9402 
160 6.38e-06 105.113 2.70486e+22 267.838 100.023 
161 6.42e-06 105.086 2.7047e+22 267.84 100.018 
162 6.46e-06 105.092 2.70338e+22 268.125 100.075 
163 6.5e-06 105.1 2.70311e+22 268.062 100.042 
164 6.54e-06 105.124 2.70193e+22 267.958 99.9593 
165 6.58e-06 105.016 2.69901e+22 268.205 99.9436 
166 6.62e-06 105.001 2.69821e+22 268.401 99.9869 
167 6.66e-06 105.028 2.69907e+22 268.427 100.028 
168 6.7e-06 105.008 2.69724e+22 268.401 99.9508 
169 6.74e-06 105.02 2.69699e+22 268.593 100.013 
170 6.78e-06 105.01 2.69711e+22 268.719 100.065 
171 6.82e-06 104.978 2.69721e+22 268.23 99.8861 
172 6.86e-06 105.006 2.69523e+22 268.49 99.9094 
173 6.9e-06 105.071 2.69562e+22 268.704 100.004 
174 6.94e-06 104.992 2.69441e+22 268.768 99.9826 
175 6.98e-06 104.98 2.69363e+22 268.973 100.03 
176 7.02e-06 104.902 2.69195e+22 269.155 100.035 
177 7.06e-06 105.005 2.69329e+22 269.058 100.049 
178 7.1e-06 105.075 2.69459e+22 269.264 100.174 
179 7.14e-06 104.944 2.69053e+22 268.971 99.9142 
180 7.18e-06 105.032 2.69186e+22 269.27 100.075 
181 7.22e-06 104.913 2.68803e+22 269.316 99.9492 
182 7.26e-06 105.04 2.69166e+22 269.262 100.064 
183 7.3e-06 104.966 2.68935e+22 269.298 99.9918 
184 7.34e-06 105.129 2.69461e+22 269.226 100.161 
185 7.38e-06 105.028 2.69166e+22 269.397 100.114 
186 7.42e-06 105.025 2.69105e+22 269.316 100.061 
187 7.46e-06 105.023 2.68975e+22 269.68 100.148 
188 7.5e-06 105.043 2.68972e+22 269.803 100.193 
189 7.54e-06 105.015 2.68936e+22 269.571 100.094 
190 7.58e-06 105.002 2.68863e+22 269.561 100.062 
191 7.62e-06 105.074 2.6902e+22 269.721 100.18 
192 7.66e-06 105.001 2.68776e+22 269.834 100.131 
193 7.7e-06 104.982 2.68618e+22 269.97 100.123 
194 7.74e-06 104.962 2.6856e+22 269.897 100.074 
195 7.78e-06 105.155 2.69029e+22 269.873 100.24 
196 7.82e-06 105.09 2.68655e+22 269.894 100.109 
197 7.86e-06 105.037 2.68494e+22 269.874 100.041 
198 7.9e-06 105.011 2.68447e+22 269.916 100.039 
199 7.94e-06 104.975 2.68404e+22 270.126 100.101 
200 7.98e-06 105.012 2.68307e+22 270.273 100.119 
201 8.02e-06 105.07 2.6844e+22 270.136 100.118 
202 8.06e-06 105.016 2.68304e+22 270.128 100.065 
203 8.1e-06 105.005 2.68174e+22 270.459 100.139 
204 8.14e-06 105.077 2.68363e+22 270.397 100.186 
205 8.18e-06 105.031 2.68172e+22 270.509 100.156 
206 8.22e-06 105.043 2.68045e+22 270.514 100.111 
207 8.26e-06 105.009 2.68126e+22 270.576 100.164 
208 8.3e-06 105.024 2.68004e+22 270.717 100.17 
209 8.34e-06 105.002 2.67982e+22 270.699 100.155 
210 8.38e-06 105.037 2.67957e+22 270.786 100.178 
211 8.42e-06 105.018 2.67831e+22 271.09 100.244 
212 8.46e-06 104.969 2.6762e+22 270.977 100.123 
213 8.5e-06 105.023 2.67713e+22 270.963 100.153 
214 8.54e-06 104.972 2.67559e+22 271.073 100.136 
215 8.58e-06 105.01 2.675e+22 271.141 100.139 
216 8.62e-06 105.093 2.67718e+22 271.21 100.246 
217 8.66e-06 105.026 2.67546e+22 271.451 100.27 
218 8.7e-06 104.988 2.67463e+22 271.586 100.289 
219 8.74e-06 104.972 2.67465e+22 271.627 100.305 
220 8.78e-06 105.012 2.67437e+22 271.803 100.36 
221 8.82e-06 104.984 2.67275e+22 271.591 100.221 
222 8.86e-06 105.069 2.67529e+22 271.576 100.31 
223 8.9e-06 104.975 2.6727e+22 271.538 100.199 
224 8.94e-06 104.986 2.67401e+22 271.764 100.332 
225 8.98e-06 105.01 2.67242e+22 271.849 100.303 
226 9.02e-06 105.02 2.67344e+22 271.627 100.26 
227 9.06e-06 105.07 2.6744e+22 271.732 100.334 
228 9.1e-06 104.964 2.67073e+22 271.784 100.216 
229 9.14e-06 104.999 2.671e+22 271.825 100.241 
230 9.18e-06 105.087 2.67419e+22 272.043 100.441 
231 9.22e-06 105.047 2.6719e+22 271.906 100.305 
232 9.26e-06 105.068 2.67119e+22 272.02 100.32 
233 9.3e-06 105.137 2.67307e+22 271.867 100.335 
234 9.34e-06 105.043 2.6694e+22 272.056 100.266 
235 9.38e-06 105.058 2.67022e+22 272.382 100.417 
236 9.42e-06 105.022 2.66789e+22 272.165 100.25 
237 9.46e-06 105.009 2.66906e+22 272.109 100.273 
238 9.5e-06 105.019 2.66954e+22 272.379 100.391 
239 9.54e-06 105.037 2.66871e+22 272.291 100.327 
240 9.58e-06 105.11 2.67022e+22 272.169 100.339 
241 9.62e-06 105.036 2.66827e+22 272.619 100.431 
242 9.66e-06 105.034 2.66604e+22 272.508 100.306 
243 9.7e-06 105.004 2.66401e+22 272.599 100.264 
244 9.74e-06 105.013 2.66549e+22 272.66 100.342 
245 9.78e-06 104.942 2.66178e+22 272.892 100.287 
246 9.82e-06 104.993 2.66196e+22 272.965 100.321 
247 9.86e-06 104.939 2.66017e+22 273.081 100.296 
248 9.9e-06 104.975 2.66044e+22 273.198 100.349 
249 9.94e-06 105.021 2.6616e+22 273.42 100.475 
250 9.98e-06 104.983 2.66021e+22 273.355 100.398 
251 1.002e-05 104.95 2.66075e+22 273.536 100.485 
252 1.006e-05 104.95 2.66045e+22 273.233 100.362 
253 1.01e-05 104.849 2.65689e+22 273.467 100.314 
254 1.014e-05 104.801 2.65418e+22 273.464 100.211 
255 1.018e-05 104.862 2.65515e+22 273.541 100.275 
256 1.022e-05 104.956 2.65563e+22 273.554 100.298 
257 1.026e-05 104.933 2.65537e+22 273.579 100.298 
258 1.03e-05 104.948 2.65436e+22 273.668 100.292 
259 1.034e-05 104.914 2.65329e+22 273.621 100.235 
260 1.038e-05 104.939 2.65498e+22 273.579 100.283 
261 1.042e-05 104.947 2.65485e+22 273.844 100.375 
262 1.046e-05 104.894 2.65305e+22 273.745 100.271 
263 1.05e-05 104.906 2.65282e+22 273.717 100.252 
264 1.054e-05 104.939 2.65409e+22 273.829 100.341 
265 1.058e-05 105.015 2.65599e+22 273.743 100.381 
266 1.062e-05 104.974 2.65443e+22 273.913 100.385 
267 1.066e-05 105.07 2.65567e+22 273.908 100.429 
268 1.07e-05 105.015 2.65461e+22 274.034 100.436 
269 1.074e-05 104.853 2.64903e+22 274.085 100.243 
270 1.078e-05 104.943 2.65151e+22 274.293 100.413 
271 1.082e-05 104.902 2.65005e+22 274.236 100.337 
272 1.086e-05 104.942 2.6502e+22 274.288 100.362 
273 1.09e-05 104.977 2.65187e+22 274.284 100.424 
274 1.094e-05 105.069 2.65468e+22 274.273 100.526 
275 1.098e-05 104.999 2.65276e+22 274.375 100.491 
276 1.102e-05 104.92 2.64982e+22 274.448 100.406 
277 1.106e-05 104.975 2.6495e+22 274.559 100.435 
278 1.11e-05 104.937 2.64773e+22 274.575 100.373 
279 1.114e-05 104.99 2.64898e+22 274.678 100.459 
280 1.118e-05 104.978 2.64974e+22 274.642 100.474 
281 1.122e-05 105 2.64829e+22 274.871 100.502 
282 1.126e-05 105.004 2.64836e+22 274.947 100.533 
283 1.13e-05 105.001 2.64751e+22 274.984 100.514 
284 1.134e-05 104.958 2.64529e+22 275.004 100.437 
285 1.138e-05 104.978 2.64501e+22 275.222 100.507 
286 1.142e-05 104.964 2.64384e+22 275.345 100.507 
287 1.146e-05 104.99 2.64435e+22 275.394 100.544 
288 1.15e-05 104.979 2.64519e+22 275.5 100.615 
289 1.154e-05 104.985 2.64374e+22 275.503 100.56 
290 1.158e-05 104.919 2.6429e+22 275.39 100.488 
291 1.162e-05 104.861 2.64005e+22 275.444 100.399 
292 1.166e-05 104.91 2.64021e+22 275.529 100.436 
293 1.17e-05 104.874 2.64004e+22 275.6 100.455 
294 1.174e-05 104.944 2.64071e+22 275.504 100.446 
295 1.178e-05 105.009 2.64307e+22 275.504 100.535 
296 1.182e-05 104.892 2.63899e+22 275.597 100.414 
297 1.186e-05 104.946 2.63896e+22 275.931 100.535 
298 1.19e-05 104.915 2.63786e+22 275.683 100.403 
299 1.194e-05 104.938 2.63908e+22 275.885 100.522 
300 1.198e-05 104.948 2.63954e+22 275.702 100.473 
301 1.202e-05 104.946 2.63863e+22 275.949 100.529 
302 1.206e-05 104.89 2.63704e+22 275.862 100.436 
303 1.21e-05 104.9 2.63687e+22 275.834 100.42 
304 1.214e-05 104.89 2.63645e+22 276.071 100.49 
305 1.218e-05 104.877 2.63617e+22 276.119 100.497 
306 1.222e-05 104.947 2.63645e+22 276.206 100.539 
307 1.226e-05 104.987 2.63774e+22 276.106 100.552 
308 1.23e-05 104.931 2.63518e+22 276.078 100.444 
309 1.234e-05 104.921 2.63465e+22 276.141 100.447 
310 1.238e-05 104.984 2.63624e+22 276.215 100.534 
311 1.242e-05 104.942 2.63509e+22 276.175 100.476 
312 1.246e-05 104.903 2.63451e+22 276.219 100.47 
313 1.25e-05 104.846 2.62971e+22 276.413 100.357 
314 1.254e-05 104.858 2.63016e+22 276.701 100.479 
315 1.258e-05 104.899 2.63055e+22 276.545 100.437 
316 1.262e-05 104.894 2.6306e+22 276.713 100.5 
317 1.266e-05 104.914 2.63048e+22 276.617 100.461 
318 1.27e-05 104.997 2.63228e+22 276.775 100.587 
319 1.274e-05 104.894 2.62858e+22 276.612 100.386 
320 1.278e-05 104.984 2.63097e+22 276.826 100.556 
321 1.282e-05 104.887 2.62858e+22 276.908 100.494 
322 1.286e-05 104.933 2.62929e+22 276.985 100.549 
323 1.29e-05 104.937 2.62819e+22 276.854 100.459 
324 1.294e-05 104.911 2.62787e+22 277.091 100.533 
325 1.298e-05 105.001 2.62845e+22 277.035 100.535 
326 1.302e-05 104.9 2.62678e+22 277.346 100.584 
327 1.306e-05 104.898 2.62722e+22 277.12 100.519 
328 1.31e-05 105.004 2.62967e+22 277.181 100.635 
329 1.314e-05 105.035 2.63154e+22 277.086 100.672 
330 1.318e-05 105.001 2.62928e+22 277.232 100.638 
331 1.322e-05 104.992 2.62796e+22 277.175 100.567 
332 1.326e-05 104.919 2.62443e+22 277.508 100.553 
333 1.33e-05 105.017 2.6278e+22 277.454 100.662 
334 1.334e-05 105.07 2.62889e+22 277.486 100.716 
335 1.338e-05 104.914 2.62296e+22 277.711 100.57 
336 1.342e-05 104.988 2.62582e+22 277.862 100.734 
337 1.346e-05 105.023 2.62511e+22 277.851 100.703 
338 1.35e-05 104.973 2.62349e+22 277.87 100.648 
339 1.354e-05 104.929 2.6211e+22 277.887 100.562 
340 1.358e-05 104.974 2.6218e+22 277.998 100.629 
341 1.362e-05 104.932 2.62044e+22 278.152 100.633 
342 1.366e-05 104.964 2.6208e+22 278.101 100.628 
343 1.37e-05 104.883 2.61704e+22 278.367 100.58 
344 1.374e-05 104.902 2.61873e+22 278.53 100.704 
345 1.378e-05 105.019 2.62233e+22 278.459 100.816 
346 1.382e-05 104.94 2.61934e+22 278.475 100.707 
347 1.386e-05 104.963 2.61906e+22 278.528 100.716 
348 1.39e-05 104.935 2.61795e+22 278.79 100.768 
349 1.394e-05 104.918 2.61636e+22 278.86 100.732 
350 1.398e-05 104.928 2.6176e+22 278.843 100.774 
351 1.402e-05 104.887 2.61536e+22 279.012 100.748 
352 1.406e-05 104.929 2.61641e+22 279.004 100.786 
353 1.41e-05 104.943 2.61705e+22 279.102 100.846 
354 1.414e-05 104.963 2.61657e+22 279.179 100.855 
355 1.418e-05 104.927 2.6143e+22 279.121 100.747 
356 1.422e-05 104.847 2.61281e+22 279.235 100.731 
357 1.426e-05 104.914 2.61538e+22 279.555 100.945 
358 1.43e-05 104.911 2.61423e+22 279.349 100.826 
359 1.434e-05 104.905 2.61362e+22 279.331 100.796 
360 1.438e-05 104.984 2.61466e+22 279.285 100.82 
361 1.442e-05 104.891 2.6124e+22 279.67 100.871 
362 1.446e-05 104.865 2.61089e+22 279.591 100.785 
363 1.45e-05 104.964 2.61317e+22 279.605 100.878 
364 1.454e-05 104.946 2.61142e+22 279.548 100.79 
365 1.458e-05 104.937 2.61078e+22 279.706 100.822 
366 1.462e-05 104.958 2.61145e+22 279.722 100.854 
367 1.466e-05 104.881 2.60957e+22 279.809 100.812 
368 1.47e-05 104.922 2.60978e+22 279.829 100.827 
369 1.474e-05 104.931 2.61032e+22 279.914 100.879 
370 1.478e-05 104.93 2.60904e+22 279.969 100.849 
371 1.482e-05 104.977 2.61077e+22 279.899 100.891 
372 1.486e-05 104.977 2.6104e+22 280.049 100.931 
373 1.49e-05 104.925 2.60847e+22 280.077 100.866 
374 1.494e-05 104.877 2.60675e+22 280.09 100.805 
375 1.498e-05 104.894 2.60641e+22 280.078 100.787 
376 1.502e-05 104.887 2.60611e+22 280.322 100.863 
377 1.506e-05 104.945 2.60585e+22 280.57 100.942 
378 1.51e-05 104.859 2.60489e+22 280.401 100.844 
379 1.514e-05 104.849 2.60349e+22 280.38 100.782 
380 1.518e-05 104.873 2.6034e+22 280.386 100.782 
381 1.522e-05 104.912 2.60324e+22 280.4 100.78 
382 1.526e-05 104.845 2.60066e+22 280.591 100.749 
383 1.53e-05 104.946 2.60228e+22 280.49 100.776 
384 1.534e-05 104.813 2.59829e+22 280.701 100.696 
385 1.538e-05 104.842 2.59762e+22 280.789 100.702 
386 1.542e-05 104.837 2.59748e+22 280.933 100.748 
387 1.546e-05 104.835 2.59827e+22 280.993 100.8 
388 1.55e-05 104.889 2.59891e+22 280.736 100.733 
389 1.554e-05 104.886 2.59896e+22 280.745 100.738 
390 1.558e-05 104.834 2.59601e+22 280.859 100.665 
391 1.562e-05 104.863 2.59751e+22 281.202 100.846 
392 1.566e-05 104.877 2.59705e+22 281.133 100.803 
393 1.57e-05 104.902 2.59731e+22 281.08 100.794 
394 1.574e-05 104.889 2.59625e+22 281.26 100.818 
395 1.578e-05 104.843 2.59399e+22 281.584 100.846 
396 1.582e-05 104.871 2.59558e+22 281.141 100.749 
397 1.586e-05 104.885 2.59504e+22 281.421 100.829 
398 1.59e-05 104.819 2.59263e+22 281.453 100.746 
399 1.594e-05 104.823 2.5926e+22 281.548 100.779 
400 1.598e-05 104.791 2.59117e+22 281.524 100.715 
401 1.602e-05 104.786 2.59081e+22 281.66 100.75 
402 1.606e-05 104.841 2.59199e+22 281.466 100.726 
403 1.61e-05 104.855 2.59173e+22 281.93 100.882 
404 1.614e-05 104.812 2.59077e+22 281.919 100.841 
405 1.618e-05 104.778 2.58992e+22 281.672 100.719 
406 1.622e-05 104.799 2.59026e+22 281.756 100.763 
407 1.626e-05 104.834 2.59206e+22 281.637 100.79 
408 1.63e-05 104.865 2.59215e+22 281.673 100.807 
409 1.634e-05 104.77 2.59014e+22 281.949 100.827 
410 1.638e-05 104.835 2.59067e+22 282.155 100.921 
411 1.642e-05 104.766 2.58755e+22 282.234 100.828 
412 1.646e-05 104.77 2.58769e+22 282.248 100.839 
413 1.65e-05 104.868 2.59029e+22 282.35 100.976 
414 1.654e-05 104.816 2.58826e+22 282.338 100.893 
415 1.658e-05 104.856 2.58866e+22 282.472 100.956 
416 1.662e-05 104.787 2.58812e+22 282.384 100.904 
417 1.666e-05 104.793 2.58779e+22 282.4 100.897 
418 1.67e-05 104.798 2.58882e+22 282.262 100.888 
419 1.674e-05 104.849 2.589e+22 282.271 100.898 
420 1.678e-05 104.804 2.5866e+22 282.474 100.877 
421 1.682e-05 104.893 2.58869e+22 282.516 100.973 
422 1.686e-05 104.865 2.58761e+22 282.498 100.925 
423 1.69e-05 104.757 2.58462e+22 282.995 100.985 
424 1.694e-05 104.754 2.58528e+22 282.768 100.93 
425 1.698e-05 104.855 2.5859e+22 282.949 101.019 
426 1.702e-05 104.832 2.58414e+22 282.952 100.951 
427 1.706e-05 104.757 2.58182e+22 283.027 100.887 
428 1.71e-05 104.803 2.5839e+22 283.037 100.972 
429 1.714e-05 104.875 2.5833e+22 283.295 101.041 
430 1.718e-05 104.874 2.58289e+22 283.186 100.986 
431 1.722e-05 104.913 2.5838e+22 283.421 101.105 
432 1.726e-05 104.834 2.58081e+22 283.625 101.061 
433 1.73e-05 104.858 2.58202e+22 283.544 101.08 
434 1.734e-05 104.853 2.58133e+22 283.597 101.071 
435 1.738e-05 104.829 2.58031e+22 283.525 101.006 
436 1.742e-05 104.87 2.58157e+22 283.563 101.069 
437 1.746e-05 104.828 2.58002e+22 283.592 101.019 
438 1.75e-05 104.817 2.57952e+22 283.567 100.99 
439 1.754e-05 104.825 2.57893e+22 283.755 101.034 
440 1.758e-05 104.791 2.57808e+22 283.764 101.004 
441 1.762e-05 104.799 2.57827e+22 283.902 101.06 
442 1.766e-05 104.76 2.57692e+22 283.838 100.984 
443 1.77e-05 104.814 2.57763e+22 283.972 101.06 
444 1.774e-05 104.819 2.57697e+22 283.867 100.997 
445 1.778e-05 104.873 2.57972e+22 283.92 101.123 
446 1.782e-05 104.918 2.57929e+22 283.981 101.128 
447 1.786e-05 104.892 2.57823e+22 284.04 101.108 
448 1.79e-05 104.892 2.57787e+22 284.246 101.167 
449 1.794e-05 104.929 2.57791e+22 284.256 101.172 
450 1.798e-05 104.887 2.57535e+22 284.202 101.053 
451 1.802e-05 104.954 2.5783e+22 284.357 101.223 
452 1.806e-05 104.867 2.57601e+22 284.474 101.175 
453 1.81e-05 104.955 2.57809e+22 284.134 101.136 
454 1.814e-05 104.907 2.5767e+22 284.403 101.177 
455 1.818e-05 104.86 2.57403e+22 284.468 101.095 
456 1.822e-05 104.937 2.57754e+22 284.664 101.303 
457 1.826e-05 104.8 2.57356e+22 284.63 101.134 
458 1.83e-05 104.807 2.57248e+22 284.795 101.151 
459 1.834e-05 104.856 2.57248e+22 284.966 101.211 
460 1.838e-05 104.82 2.57109e+22 284.832 101.109 
461 1.842e-05 104.778 2.5693e+22 285.086 101.128 
462 1.846e-05 104.829 2.57028e+22 285.059 101.158 
463 1.85e-05 104.79 2.56804e+22 285.191 101.116 
464 1.854e-05 104.715 2.56655e+22 285.361 101.118 
465 1.858e-05 104.731 2.56536e+22 285.276 101.041 
466 1.862e-05 104.725 2.5647e+22 285.376 101.05 
467 1.866e-05 104.74 2.56488e+22 285.324 101.039 
468 1.87e-05 104.769 2.56583e+22 285.184 101.027 
469 1.874e-05 104.79 2.56677e+22 285.261 101.091 
470 1.878e-05 104.72 2.56448e+22 285.731 101.167 
471 1.882e-05 104.748 2.56386e+22 285.738 101.145 
472 1.886e-05 104.815 2.56557e+22 285.85 101.253 
473 1.89e-05 104.791 2.56396e+22 285.492 101.062 
474 1.894e-05 104.77 2.56362e+22 285.622 101.095 
475 1.898e-05 104.746 2.56213e+22 285.639 101.042 
476 1.902e-05 104.878 2.56607e+22 285.571 101.173 
477 1.906e-05 104.742 2.56269e+22 285.785 101.116 
478 1.91e-05 104.789 2.56232e+22 285.905 101.144 
479 1.914e-05 104.784 2.56228e+22 286.139 101.225 
480 1.918e-05 104.753 2.55971e+22 285.972 101.064 
481 1.922e-05 104.85 2.56279e+22 286.131 101.242 
482 1.926e-05 104.812 2.56133e+22 286.119 101.18 
483 1.93e-05 104.871 2.56174e+22 286.223 101.233 
484 1.934e-05 104.828 2.55996e+22 286.297 101.189 
485 1.938e-05 104.806 2.55968e+22 286.341 101.194 
486 1.942e-05 104.804 2.5603e+22 286.403 101.24 
487 1.946e-05 104.887 2.56194e+22 286.101 101.198 
488 1.95e-05 104.797 2.56013e+22 286.205 101.163 
489 1.954e-05 104.851 2.56004e+22 286.416 101.234 
490 1.958e-05 104.877 2.56048e+22 286.356 101.23 
491 1.962e-05 104.821 2.55833e+22 286.482 101.19 
492 1.966e-05 104.804 2.55693e+22 286.485 101.135 
493 1.97e-05 104.877 2.55897e+22 286.56 101.243 
494 1.974e-05 104.785 2.55557e+22 286.612 101.126 
495 1.978e-05 104.817 2.55607e+22 286.757 101.198 
496 1.982e-05 104.823 2.55583e+22 286.781 101.197 
497 1.986e-05 104.848 2.55638e+22 286.883 101.255 
498 1.99e-05 104.898 2.55706e+22 286.845 101.268 
499 1.994e-05 104.928 2.55701e+22 286.82 101.257 
500 1.998e-05 104.89 2.55802e+22 286.683 101.249 
501 2.002e-05 104.827 2.55468e+22 286.968 101.217 
502 2.006e-05 104.818 2.55358e+22 287.015 101.19 
503 2.01e-05 104.816 2.55273e+22 287.27 101.246 
504 2.014e-05 104.855 2.55417e+22 287.093 101.241 
505 2.018e-05 104.8 2.55274e+22 287.19 101.218 
506 2.022e-05 104.756 2.55134e+22 287.276 101.193 
507 2.026e-05 104.817 2.55291e+22 287.382 101.293 
508 2.03e-05 104.835 2.55178e+22 287.654 101.344 
509 2.034e-05 104.773 2.54963e+22 287.765 101.298 
510 2.038e-05 104.825 2.55175e+22 287.582 101.317 
511 2.042e-05 104.736 2.54806e+22 287.672 101.202 
512 2.046e-05 104.77 2.54887e+22 287.82 101.286 
513 2.05e-05 104.816 2.54901e+22 287.66 101.236 
514 2.054e-05 104.815 2.54849e+22 287.702 101.23 
515 2.058e-05 104.796 2.54826e+22 287.759 101.241 
516 2.062e-05 104.855 2.54994e+22 287.697 101.286 
517 2.066e-05 104.847 2.54845e+22 287.989 101.329 
518 2.07e-05 104.818 2.54761e+22 288.061 101.321 
519 2.074e-05 104.811 2.54592e+22 288.095 101.266 
520 2.078e-05 104.759 2.54469e+22 288.004 101.185 
521 2.082e-05 104.793 2.54594e+22 288.146 101.285 
522 2.086e-05 104.802 2.54598e+22 287.792 101.162 
523 2.09e-05 104.87 2.54646e+22 288.159 101.31 
524 2.094e-05 104.889 2.54745e+22 288.193 101.362 
525 2.098e-05 104.824 2.54506e+22 288.498 101.374 
526 2.102e-05 104.828 2.54503e+22 288.297 101.301 
527 2.106e-05 104.798 2.54372e+22 288.403 101.287 
528 2.11e-05 104.729 2.54155e+22 288.628 101.279 
529 2.114e-05 104.63 2.53803e+22 288.668 101.153 
530 2.118e-05 104.756 2.54145e+22 288.774 101.326 
531 2.122e-05 104.754 2.54034e+22 288.645 101.237 
532 2.126e-05 104.81 2.54129e+22 288.571 101.249 
533 2.13e-05 104.818 2.5419e+22 288.481 101.241 
534 2.134e-05 104.681 2.53892e+22 288.737 101.213 
535 2.138e-05 104.667 2.53739e+22 288.995 101.242 
536 2.142e-05 104.77 2.53935e+22 288.84 101.266 
537 2.146e-05 104.702 2.53821e+22 288.929 101.252 
538 2.15e-05 104.693 2.53634e+22 289.018 101.208 
539 2.154e-05 104.714 2.5379e+22 289.21 101.338 
540 2.158e-05 104.839 2.54037e+22 288.851 101.311 
541 2.162e-05 104.726 2.53824e+22 289.234 101.36 
542 2.166e-05 104.726 2.53772e+22 289.389 101.393 
543 2.17e-05 104.636 2.53396e+22 289.341 101.226 
544 2.174e-05 104.653 2.53411e+22 289.453 101.271 
545 2.178e-05 104.667 2.53519e+22 289.5 101.331 
546 2.182e-05 104.622 2.53331e+22 289.391 101.218 
547 2.186e-05 104.667 2.53261e+22 289.597 101.262 
548 2.19e-05 104.673 2.53135e+22 289.747 101.264 
549 2.194e-05 104.649 2.53112e+22 289.768 101.262 
550 2.198e-05 104.638 2.52997e+22 289.961 101.283 
551 2.202e-05 104.684 2.53084e+22 289.862 101.284 
552 2.206e-05 104.685 2.53002e+22 289.947 101.281 
553 2.21e-05 104.691 2.5285e+22 289.916 101.209 
554 2.214e-05 104.674 2.52746e+22 290.039 101.21 
555 2.218e-05 104.765 2.52999e+22 290.115 101.338 
556 2.222e-05 104.796 2.53007e+22 289.946 101.282 
557 2.226e-05 104.71 2.5287e+22 290.054 101.265 
558 2.23e-05 104.756 2.52954e+22 290.161 101.336 
559 2.234e-05 104.821 2.53073e+22 290.216 101.403 
560 2.238e-05 104.848 2.53004e+22 290.569 101.498 
561 2.242e-05 104.725 2.52802e+22 290.192 101.286 
562 2.246e-05 104.757 2.52734e+22 290.479 101.359 
563 2.25e-05 104.768 2.52716e+22 290.301 101.29 
564 2.254e-05 104.659 2.52574e+22 290.496 101.301 
565 2.258e-05 104.65 2.52355e+22 290.796 101.317 
566 2.262e-05 104.705 2.52693e+22 290.605 101.386 
567 2.266e-05 104.747 2.52671e+22 290.673 101.401 
568 2.27e-05 104.738 2.52483e+22 290.587 101.296 
569 2.274e-05 104.763 2.52585e+22 290.818 101.417 
570 2.278e-05 104.665 2.52279e+22 290.823 101.296 
571 2.282e-05 104.823 2.52624e+22 290.494 101.32 
572 2.286e-05 104.72 2.52294e+22 290.851 101.312 
573 2.29e-05 104.789 2.52485e+22 290.932 101.417 
574 2.294e-05 104.777 2.52414e+22 291.039 101.426 
575 2.298e-05 104.796 2.52456e+22 291.279 101.526 
576 2.302e-05 104.704 2.52088e+22 291.222 101.358 
577 2.306e-05 104.757 2.52259e+22 291.367 101.478 
578 2.31e-05 104.687 2.52054e+22 291.096 101.301 
579 2.314e-05 104.744 2.5207e+22 291.167 101.332 
580 2.318e-05 104.759 2.51969e+22 291.489 101.403 
581 2.322e-05 104.826 2.52188e+22 291.439 101.474 
582 2.326e-05 104.866 2.52292e+22 291.27 101.457 
583 2.33e-05 104.738 2.51838e+22 291.477 101.346 
584 2.334e-05 104.73 2.51699e+22 291.634 101.345 
585 2.338e-05 104.863 2.5197e+22 291.556 101.427 
586 2.342e-05 104.788 2.5188e+22 291.458 101.357 
587 2.346e-05 104.75 2.51645e+22 291.651 101.33 
588 2.35e-05 104.735 2.51533e+22 291.753 101.32 
589 2.354e-05 104.805 2.5159e+22 291.803 101.36 
590 2.358e-05 104.784 2.51504e+22 291.982 101.388 
591 2.362e-05 104.729 2.51414e+22 292.138 101.405 
592 2.366e-05 104.802 2.51666e+22 291.816 101.395 
593 2.37e-05 104.73 2.51433e+22 292.08 101.393 
594 2.374e-05 104.773 2.51562e+22 292.196 101.485 
595 2.378e-05 104.708 2.5142e+22 292.202 101.43 
596 2.382e-05 104.711 2.51366e+22 292.331 101.453 
597 2.386e-05 104.675 2.51207e+22 292.094 101.306 
598 2.39e-05 104.718 2.51218e+22 292.233 101.359 
599 2.394e-05 104.737 2.51162e+22 292.43 101.405 
600 2.398e-05 104.639 2.50923e+22 292.461 101.319 