ITEM: TIMESTEP
100000
ITEM: NUMBER OF CELLS
200
ITEM: BOX BOUNDS pp ss pp
0 0.0001
0 4e-05
0 0.0001
ITEM: CELLS id yc f_vel[1] f_vel[2] f_mom[1] f_mom[2] f_mom[3] f_q[*] 
1 1e-07 0.728228 0.0775089 98.0394 100.859 0.161159 -10672.2 
2 3e-07 1.29402 0.0278304 97.9557 100.892 0.130004 -10679.4 
3 5e-07 0.596137 -0.0494097 97.766 100.809 0.155985 -10635.4 
4 7e-07 0.0261546 -0.0110174 98.225 100.875 0.161346 -10672.6 
5 9e-07 -0.155848 -0.0138486 97.9665 100.846 0.179412 -10671.3 
6 1.1e-06 0.210065 0.0330208 97.6867 100.847 0.156554 -10640.6 
7 1.3e-06 -0.0407189 -0.0214778 97.933 100.857 0.152837 -10673.5 
8 1.5e-06 0.0515582 -0.0271018 98.1059 100.842 0.154045 -10654.6 
9 1.7e-06 0.408648 -0.0579606 98.8303 100.861 0.14169 -10675.4 
10 1.9e-06 0.117796 -0.00326301 98.8025 100.83 0.140228 -10661.3 
11 2.1e-06 0.329739 0.0818714 98.4389 100.86 0.157538 -10639.5 
12 2.3e-06 0.0480704 -0.0865357 99.0519 100.899 0.159303 -10688.5 
13 2.5e-06 -0.453665 0.000441452 98.7083 100.822 0.150002 -10656.5 
14 2.7e-06 -0.29197 0.0119446 98.5491 100.851 0.162577 -10659.6 
15 2.9e-06 -0.294525 -0.0168954 98.488 100.861 0.145103 -10649.8 
16 3.1e-06 -0.188983 0.020543 99.013 100.934 0.195523 -10661.2 
17 3.3e-06 -0.243138 -0.0569238 98.5159 100.814 0.142695 -10668.7 
18 3.5e-06 -0.595871 0.0170672 98.337 100.893 0.157864 -10649.7 
19 3.7e-06 -0.226353 -0.0486992 98.067 100.818 0.161969 -10642.5 
20 3.9e-06 0.329211 -0.0783002 98.8786 100.882 0.145632 -10653.3 
21 4.1e-06 -0.0611723 -0.00302279 99.2812 100.854 0.190903 -10636.8 
22 4.3e-06 0.119908 -0.00726087 99.5205 100.857 0.161288 -10658.4 
23 4.5e-06 0.879484 -0.0226155 99.3269 100.908 0.149852 -10669 
24 4.7e-06 1.479 -0.0279825 98.8898 100.831 0.137414 -10634.8 
25 4.9e-06 0.683148 -0.0289571 99.2119 100.891 0.155912 -10662.6 
26 5.1e-06 0.944813 -0.0780918 99.393 100.915 0.176464 -10654.9 
27 5.3e-06 0.562687 -0.034946 99.0044 100.883 0.136651 -10640.5 
28 5.5e-06 1.09348 -0.0332409 98.9262 100.844 0.166636 -10630.4 
29 5.7e-06 2.25613 -0.0389717 99.2258 100.878 0.165582 -10657.2 
30 5.9e-06 1.33463 0.03823 98.9021 100.913 0.173944 -10646.7 
31 6.1e-06 0.950599 -0.0692055 98.8939 100.845 0.151027 -10659.4 
32 6.3e-06 0.930331 -0.0405149 99.6995 100.86 0.166043 -10649.4 
33 6.5e-06 1.10383 -0.0584415 99.4965 100.854 0.1525 -10646.7 
34 6.7e-06 0.735207 0.0158261 99.563 100.868 0.188675 -10654.7 
35 6.9e-06 0.795701 -0.0459794 99.1118 100.881 0.156685 -10664.5 
36 7.1e-06 0.682366 -0.0090652 99.2389 100.859 0.136382 -10648.9 
37 7.3e-06 1.05849 -0.0379825 99.3331 100.891 0.162705 -10652.3 
38 7.5e-06 1.39171 0.0438172 99.6577 100.774 0.14029 -10634.7 
39 7.7e-06 0.39994 -0.140689 99.3064 100.912 0.153972 -10664.3 
40 7.9e-06 0.263417 0.00819857 99.8561 100.855 0.170488 -10661.1 
41 8.1e-06 -0.0887535 0.0505748 99.9351 100.832 0.154498 -10648.8 
42 8.3e-06 0.686478 -0.0680787 99.9361 100.879 0.114234 -10643.6 
43 8.5e-06 0.899824 -0.0491628 100.195 100.896 0.164572 -10667.6 
44 8.7e-06 0.4045 0.00887779 100.059 100.831 0.148981 -10645.3 
45 8.9e-06 0.946472 -0.0357879 99.7965 100.877 0.114123 -10666.5 
46 9.1e-06 0.926285 -0.0129364 100.504 100.865 0.175748 -10641.3 
47 9.3e-06 0.832495 0.075516 99.8055 100.825 0.152871 -10624.6 
48 9.5e-06 0.623311 -0.0237329 100.135 100.869 0.120864 -10675.3 
49 9.7e-06 1.03107 -0.0234328 100.665 100.905 0.179146 -10665.3 
50 9.9e-06 1.10222 -0.0125776 100.354 100.828 0.128589 -10639.4 
51 1.01e-05 0.556639 0.00157675 100.87 100.875 0.153631 -10661.2 
52 1.03e-05 0.0229938 0.0172525 100.731 100.815 0.153794 -10654.3 
53 1.05e-05 -0.0577348 0.0331537 100.703 100.834 0.122812 -10647 
54 1.07e-05 0.642804 -0.0251313 100.454 100.874 0.171332 -10651.6 
55 1.09e-05 -0.162227 0.0468238 99.9955 100.86 0.120415 -10652.3 
56 1.11e-05 -0.0791255 -0.0102387 100.311 100.824 0.156875 -10648.1 
57 1.13e-05 -0.252683 -0.041483 100.44 100.868 0.161347 -10651 
58 1.15e-05 -0.563742 0.0626917 100.28 100.788 0.138459 -10638.6 
59 1.17e-05 0.136799 -0.00814362 100.513 100.883 0.170867 -10649.8 
60 1.19e-05 -0.339852 0.0325061 100.847 100.854 0.156049 -10657.5 
61 1.21e-05 -0.181106 0.0294126 100.591 100.828 0.135486 -10656.6 
62 1.23e-05 0.316279 0.0135164 100.555 100.833 0.153069 -10637.3 
63 1.25e-05 0.359258 -0.00750256 100.575 100.849 0.158153 -10662.5 
64 1.27e-05 -0.870889 -0.00224457 100.644 100.9 0.14681 -10668.6 
65 1.29e-05 -1.098 0.0559546 99.8785 100.831 0.114877 -10631.1 
66 1.31e-05 -0.22455 0.0334809 100.224 100.829 0.139529 -10639.5 
67 1.33e-05 -0.262115 -0.0416318 99.8779 100.894 0.16555 -10664.4 
68 1.35e-05 -0.304547 -0.0319035 100.136 100.822 0.113182 -10644.1 
69 1.37e-05 -0.125496 0.0710054 100.534 100.849 0.14148 -10641.1 
70 1.39e-05 -0.837117 -0.0666993 100.454 100.893 0.168387 -10655.9 
71 1.41e-05 -0.630381 0.116811 100.934 100.894 0.0958643 -10643.6 
72 1.43e-05 -0.11539 -0.0132221 100.012 100.827 0.138077 -10613.5 
73 1.45e-05 0.440707 0.00647153 100.406 100.855 0.132264 -10640 
74 1.47e-05 -0.15526 0.0279777 100.596 100.88 0.140267 -10640.8 
75 1.49e-05 0.16165 -0.00171276 101.124 100.923 0.0946264 -10650.9 
76 1.51e-05 0.413606 0.0500067 100.746 100.828 0.110933 -10625.2 
77 1.53e-05 0.809948 -0.0492416 100.993 100.858 0.148924 -10656.3 
78 1.55e-05 0.950907 0.0441052 100.705 100.833 0.118152 -10610.6 
79 1.57e-05 1.00564 0.0204989 100.939 100.89 0.139163 -10630.2 
80 1.59e-05 0.332164 -0.093255 101.168 100.828 0.139804 -10640.1 
81 1.61e-05 -0.00137977 0.0499192 101.541 100.847 0.125688 -10631.1 
82 1.63e-05 -0.0820248 0.00452712 101.441 100.876 0.148185 -10654.5 
83 1.65e-05 -0.684662 0.0253604 101.264 100.848 0.128071 -10628 
84 1.67e-05 -1.04328 -0.0380053 101.622 100.84 0.150218 -10645.8 
85 1.69e-05 -0.841005 -0.0326665 101.351 100.817 0.150642 -10649.2 
86 1.71e-05 -0.449816 0.024394 101.391 100.883 0.107441 -10648.7 
87 1.73e-05 -0.135214 0.000946643 101.299 100.848 0.121376 -10642.4 
88 1.75e-05 0.445401 -0.0222621 101.374 100.81 0.152275 -10634.5 
89 1.77e-05 -0.200225 -0.0374918 101.315 100.901 0.127161 -10643.2 
90 1.79e-05 0.0249456 0.0516267 101.351 100.808 0.1207 -10637.1 
91 1.81e-05 -0.0625084 0.0530485 101.353 100.863 0.125757 -10611.5 
92 1.83e-05 -0.786445 -0.0305017 101.994 100.782 0.144556 -10634.2 
93 1.85e-05 -0.35174 -0.0229018 102.114 100.831 0.1003 -10643.5 
94 1.87e-05 0.10234 -0.0327744 101.722 100.893 0.137388 -10645.8 
95 1.89e-05 0.542473 -0.00254397 101.631 100.809 0.109587 -10632.7 
96 1.91e-05 0.652554 0.021604 101.662 100.828 0.140621 -10651.8 
97 1.93e-05 0.55826 -0.0776291 101.665 100.848 0.0713685 -10626.9 
98 1.95e-05 0.028784 0.000268391 101.442 100.844 0.110208 -10641.9 
99 1.97e-05 -0.110726 -0.0248023 101.514 100.826 0.116683 -10624.4 
100 1.99e-05 0.22458 -0.0512783 101.152 100.835 0.139963 -10622.1 
101 2.01e-05 0.898559 -0.0588247 101.374 100.843 0.123592 -10621.2 
102 2.03e-05 0.746958 -0.0644005 101.438 100.844 0.110403 -10626.7 
103 2.05e-05 0.67884 -0.0693562 101.459 100.851 0.103355 -10614.4 
104 2.07e-05 1.42674 0.0413534 101.399 100.834 0.16507 -10624.5 
105 2.09e-05 1.82755 -0.0711876 100.945 100.873 0.0929248 -10635.4 
106 2.11e-05 1.36434 0.0121979 101.396 100.812 0.123492 -10631 
107 2.13e-05 0.733904 -0.0792999 101.746 100.879 0.139179 -10625.3 
108 2.15e-05 0.399925 0.0462414 101.266 100.802 0.0932337 -10596.5 
109 2.17e-05 0.866255 0.0167094 101.946 100.836 0.136548 -10611.9 
110 2.19e-05 0.941552 -0.00195742 102.491 100.782 0.121176 -10614.8 
111 2.21e-05 0.339045 -0.00762694 102.074 100.854 0.151873 -10624.2 
112 2.23e-05 0.429196 0.0117813 102.315 100.816 0.108458 -10630.7 
113 2.25e-05 0.889141 -0.126718 101.556 100.94 0.128768 -10647.4 
114 2.27e-05 0.531803 -0.0554484 102.42 100.777 0.143224 -10611.4 
115 2.29e-05 0.32164 -0.0500279 102.345 100.897 0.0760627 -10660.9 
116 2.31e-05 0.649027 -0.00404517 102.484 100.77 0.122316 -10618.3 
117 2.33e-05 0.625609 -0.0461813 101.799 100.877 0.1395 -10642.6 
118 2.35e-05 0.84849 -0.0144434 101.848 100.874 0.10289 -10617.6 
119 2.37e-05 1.44495 -0.0253516 101.868 100.776 0.151976 -10614.5 
120 2.39e-05 1.88419 -0.00340453 102.178 100.842 0.0918661 -10631.4 
121 2.41e-05 2.1115 -0.0577519 102.021 100.867 0.153011 -10616.6 
122 2.43e-05 2.07102 -0.0329572 101.898 100.828 0.12329 -10619.3 
123 2.45e-05 1.81678 -0.0545563 102.19 100.895 0.139303 -10630.1 
124 2.47e-05 2.11947 -0.0156835 101.44 100.742 0.115795 -10610 
125 2.49e-05 2.29221 -0.0423161 102.246 100.865 0.130002 -10635.4 
126 2.51e-05 0.882012 -0.0573788 102.323 100.866 0.124587 -10633.9 
127 2.53e-05 0.820852 -0.0630048 102.141 100.868 0.123646 -10613.2 
128 2.55e-05 1.31486 0.0227278 101.385 100.81 0.148153 -10616.7 
129 2.57e-05 -0.146439 -0.114141 101.749 100.884 0.13246 -10622.6 
130 2.59e-05 0.0426896 -0.0140609 101.213 100.777 0.132841 -10596.3 
131 2.61e-05 0.391011 -0.0627932 101.253 100.837 0.107649 -10601.5 
132 2.63e-05 0.647737 -0.128578 101.66 100.88 0.141718 -10603.4 
133 2.65e-05 0.256021 0.0190173 101.838 100.807 0.114972 -10611.8 
134 2.67e-05 1.00372 -0.0433575 101.978 100.803 0.140267 -10624 
135 2.69e-05 1.36969 -0.0114524 102.152 100.903 0.116827 -10625.8 
136 2.71e-05 1.53329 -0.0780125 101.835 100.827 0.0946067 -10609.3 
137 2.73e-05 1.48824 0.0127518 102.223 100.801 0.10873 -10600.1 
138 2.75e-05 0.0371851 -0.0830627 103.019 100.911 0.152907 -10639.7 
139 2.77e-05 0.596024 -0.127702 102.445 100.81 0.112697 -10598.4 
140 2.79e-05 0.87492 0.0029065 102.241 100.821 0.1282 -10607.2 
141 2.81e-05 0.358831 -0.0525013 101.409 100.847 0.120974 -10587.2 
142 2.83e-05 -0.0988352 -0.00422224 102.231 100.802 0.111478 -10607.5 
143 2.85e-05 1.3432 -0.130054 102.103 100.828 0.117946 -10609.3 
144 2.87e-05 1.13407 -0.0289493 102.403 100.837 0.133675 -10616.3 
145 2.89e-05 1.10002 -0.03467 102.688 100.858 0.113193 -10603.8 
146 2.91e-05 1.17153 -0.0587532 102.954 100.85 0.0960435 -10619.1 
147 2.93e-05 1.26155 -0.055866 102.794 100.798 0.136656 -10603.3 
148 2.95e-05 0.991267 -0.0276375 102.732 100.857 0.109995 -10603.2 
149 2.97e-05 1.03136 -0.0730738 102.884 100.865 0.107126 -10618 
150 2.99e-05 2.20076 -0.148947 102.966 100.841 0.129003 -10617.5 
151 3.01e-05 2.33123 0.0780271 102.597 100.805 0.136506 -10610.5 
152 3.03e-05 2.0805 -0.0950585 103.57 100.881 0.132028 -10604.7 
153 3.05e-05 1.70117 -0.0678324 103.148 100.806 0.155112 -10610.2 
154 3.07e-05 2.10774 0.0329132 103.514 100.803 0.117631 -10603.3 
155 3.09e-05 1.93258 -0.103174 103.396 100.83 0.14368 -10592.4 
156 3.11e-05 1.4636 -0.0789187 103.178 100.832 0.130892 -10585.1 
157 3.13e-05 1.4751 -0.0845888 103.54 100.846 0.149632 -10603.6 
158 3.15e-05 0.842467 0.0291876 103.754 100.793 0.149267 -10591.3 
159 3.17e-05 0.866684 -0.0878157 103.728 100.856 0.161718 -10614.4 
160 3.19e-05 1.44375 -0.0751138 103.414 100.825 0.12891 -10595.3 
161 3.21e-05 0.794004 -0.00688354 103.258 100.751 0.140873 -10583.8 
162 3.23e-05 0.289963 -0.142886 103.502 100.923 0.128356 -10598.7 
163 3.25e-05 0.251399 -0.047508 103.729 100.821 0.137066 -10592.5 
164 3.27e-05 0.716838 -0.0307368 103.382 100.819 0.113599 -10611.2 
165 3.29e-05 -0.0228637 -0.00739445 103.484 100.764 0.156931 -10563.5 
166 3.31e-05 0.184952 -0.111389 103.281 100.921 0.119191 -10574.5 
167 3.33e-05 0.232741 -0.0236921 103.279 100.78 0.157947 -10611 
168 3.35e-05 0.82461 -0.0265788 102.958 100.815 0.136646 -10594.5 
169 3.37e-05 1.09742 -0.0572037 102.939 100.839 0.147561 -10615.5 
170 3.39e-05 1.45648 -0.0370835 102.953 100.849 0.116335 -10597.6 
171 3.41e-05 1.14569 0.00391796 103.349 100.792 0.131555 -10601.8 
172 3.43e-05 0.42456 -0.0482935 103.144 100.777 0.151115 -10585.6 
173 3.45e-05 0.600992 -0.0303746 102.987 100.845 0.111576 -10594 
174 3.47e-05 0.31861 -0.076568 102.91 100.829 0.11993 -10574.2 
175 3.49e-05 0.271924 -0.0698126 102.449 100.812 0.185942 -10585.7 
176 3.51e-05 0.638063 0.0572516 102.673 100.758 0.12675 -10579.3 
177 3.53e-05 0.737537 -0.0274442 103.019 100.869 0.147368 -10602.4 
178 3.55e-05 0.687742 -0.158446 103.226 100.825 0.156635 -10583.3 
179 3.57e-05 1.17898 0.0211515 103.316 100.82 0.13531 -10580.5 
180 3.59e-05 0.837272 -0.0682585 102.727 100.872 0.188341 -10586.2 
181 3.61e-05 0.226257 -0.00540817 102.858 100.779 0.153168 -10580.8 
182 3.63e-05 0.839112 -0.148923 103.031 100.88 0.154593 -10593.1 
183 3.65e-05 0.89117 -0.00309812 102.811 100.773 0.1558 -10554.4 
184 3.67e-05 0.991001 -0.0867109 103.061 100.758 0.182457 -10560.8 
185 3.69e-05 1.15372 -0.0809724 102.943 100.908 0.158833 -10593.5 
186 3.71e-05 1.22842 -0.0337852 103.086 100.753 0.127644 -10566.9 
187 3.73e-05 1.37037 -0.138164 103.056 100.846 0.169494 -10586.5 
188 3.75e-05 0.957162 -0.0308651 102.998 100.799 0.135582 -10564.4 
189 3.77e-05 -0.147849 0.00952285 103.244 100.781 0.186715 -10575 
190 3.79e-05 0.552579 -0.071239 103.459 100.843 0.129718 -10571.4 
191 3.81e-05 0.541193 -0.0496502 102.975 100.864 0.166627 -10558.1 
192 3.83e-05 0.567946 0.0914061 103.06 100.736 0.168739 -10548 
193 3.85e-05 1.0457 -0.0522056 102.733 100.829 0.118854 -10567.2 
194 3.87e-05 0.835148 0.114586 102.961 100.795 0.142257 -10546.6 
195 3.89e-05 0.578664 -0.15162 103.195 100.87 0.148934 -10590.2 
196 3.91e-05 0.755796 0.027719 103.203 100.815 0.128015 -10554.5 
197 3.93e-05 0.429843 0.0250118 103.325 100.794 0.149378 -10561.8 
198 3.95e-05 0.946965 0.034317 103.125 100.827 0.15611 -10565.5 
199 3.97e-05 0.57318 -0.0348514 103.123 100.811 0.118664 -10541.1 
200 3.99e-05 0.541741 -0.00839341 103.439 100.859 0.113653 -10546.6 
