ITEM: TIMESTEP
300000
ITEM: NUMBER OF CELLS
200
ITEM: BOX BOUNDS pp ss pp
0 0.0001
0 4e-05
0 0.0001
ITEM: CELLS id yc f_vel[1] f_vel[2] f_mom[1] f_mom[2] f_mom[3] f_q[*] 
1 1e-07 1.08673 -0.00179099 98.0503 100.499 -0.110325 -10658.3 
2 3e-07 0.918763 0.00335731 97.9139 100.495 -0.108916 -10659.4 
3 5e-07 0.373596 -0.00617216 98.2693 100.506 -0.10528 -10671.7 
4 7e-07 0.308418 0.0277367 98.186 100.499 -0.10202 -10654.6 
5 9e-07 0.523455 0.00328693 98.1779 100.497 -0.109782 -10660.6 
6 1.1e-06 0.462987 0.00697696 98.2727 100.485 -0.104001 -10652.6 
7 1.3e-06 0.244667 0.00228132 98.3288 100.504 -0.103166 -10660.8 
8 1.5e-06 0.595258 -0.00447478 98.3591 100.51 -0.109465 -10658.6 
9 1.7e-06 0.795824 -0.0145104 98.3849 100.512 -0.114794 -10668.9 
10 1.9e-06 0.998561 0.0144437 98.482 100.506 -0.101263 -10655.4 
11 2.1e-06 0.951644 -0.021901 98.4239 100.496 -0.111488 -10661.7 
12 2.3e-06 0.61721 0.0118225 98.6182 100.515 -0.106227 -10665.6 
13 2.5e-06 0.642979 -0.00506084 98.7289 100.478 -0.1044 -10654.1 
14 2.7e-06 0.498099 -0.00623436 98.85 100.508 -0.118391 -10669.8 
15 2.9e-06 0.99863 0.00671566 99.0169 100.502 -0.106746 -10655.1 
16 3.1e-06 0.662108 -0.0135093 99.0758 100.487 -0.106121 -10658.9 
17 3.3e-06 0.923161 -0.00311869 98.8826 100.528 -0.111702 -10659.5 
18 3.5e-06 0.709875 0.002223 98.5709 100.485 -0.107459 -10657.2 
19 3.7e-06 0.295147 -0.00444747 98.4658 100.487 -0.102427 -10656.6 
20 3.9e-06 0.829041 -0.022085 98.7246 100.507 -0.107178 -10661 
21 4.1e-06 1.0846 0.0131697 98.8182 100.495 -0.100122 -10651.2 
22 4.3e-06 0.951255 -0.0215387 98.8806 100.509 -0.112672 -10661.1 
23 4.5e-06 0.905941 -0.01767 98.7102 100.493 -0.11049 -10654.3 
24 4.7e-06 0.688854 -0.0129529 98.7668 100.505 -0.1029 -10655.3 
25 4.9e-06 0.423364 -0.0298126 98.8478 100.503 -0.111479 -10651.8 
26 5.1e-06 0.478623 0.00668562 98.5849 100.495 -0.103283 -10649.7 
27 5.3e-06 0.596685 -0.0293811 98.561 100.497 -0.110754 -10655.3 
28 5.5e-06 0.61078 -0.00719593 99.3879 100.497 -0.0969229 -10647.6 
29 5.7e-06 1.2051 -0.0172567 99.381 100.515 -0.113815 -10655.7 
30 5.9e-06 1.37031 -0.0138648 99.099 100.476 -0.101922 -10642.6 
31 6.1e-06 1.28474 -0.00808441 99.2527 100.507 -0.104635 -10657.4 
32 6.3e-06 0.780646 -0.01532 98.9237 100.51 -0.104151 -10656.1 
33 6.5e-06 0.850504 0.000779673 99.0532 100.49 -0.10227 -10652.5 
34 6.7e-06 0.664785 -0.00934198 99.1953 100.504 -0.107709 -10647.3 
35 6.9e-06 1.04295 0.00818513 99.2556 100.496 -0.10586 -10646.9 
36 7.1e-06 0.843595 0.00108247 99.4605 100.48 -0.110684 -10651.2 
37 7.3e-06 0.312925 -0.00288944 99.4833 100.504 -0.102954 -10650.3 
38 7.5e-06 0.665663 -0.0273617 99.3014 100.514 -0.105323 -10652.5 
39 7.7e-06 0.703415 0.00724887 99.523 100.502 -0.107633 -10650.3 
40 7.9e-06 0.594886 0.0155775 99.8591 100.474 -0.106562 -10642.8 
41 8.1e-06 0.738999 -0.0126997 99.7671 100.505 -0.106885 -10655.1 
42 8.3e-06 0.400977 0.00285931 99.6551 100.506 -0.095906 -10654.9 
43 8.5e-06 1.02128 0.00860784 99.896 100.494 -0.10876 -10655.1 
44 8.7e-06 0.690828 -0.0041388 100.062 100.495 -0.108799 -10650.8 
45 8.9e-06 0.729088 0.000996109 99.9774 100.509 -0.107852 -10649.3 
46 9.1e-06 0.489601 0.0158245 99.8423 100.495 -0.101444 -10651.3 
47 9.3e-06 0.766762 -0.0101449 99.822 100.507 -0.110837 -10651.5 
48 9.5e-06 0.366645 0.00733605 100.01 100.477 -0.101729 -10653.3 
49 9.7e-06 0.46494 0.00863133 99.8381 100.504 -0.105852 -10649.2 
50 9.9e-06 0.50924 -0.00531724 100.17 100.493 -0.105697 -10646.7 
51 1.01e-05 1.06845 -0.0119766 100.378 100.5 -0.109473 -10654.6 
52 1.03e-05 0.903198 -0.00398671 100.183 100.503 -0.108564 -10651.8 
53 1.05e-05 0.605238 -0.00485832 100.257 100.489 -0.11773 -10654.5 
54 1.07e-05 0.448915 -0.00707164 100.326 100.49 -0.108714 -10641.6 
55 1.09e-05 0.400059 0.00291559 100.465 100.48 -0.107883 -10645.1 
56 1.11e-05 0.413776 -0.0229626 100.185 100.509 -0.116546 -10640.8 
57 1.13e-05 0.30996 0.0127494 100.054 100.466 -0.114142 -10638.6 
58 1.15e-05 0.445256 -0.0181713 99.9522 100.508 -0.0995344 -10641.1 
59 1.17e-05 0.520916 -0.0260642 99.8331 100.506 -0.111911 -10642.9 
60 1.19e-05 0.704352 0.0142185 100.053 100.495 -0.117173 -10642.7 
61 1.21e-05 0.930503 -0.00928817 100.171 100.495 -0.111634 -10646.8 
62 1.23e-05 0.639506 -0.0183388 100.685 100.488 -0.118368 -10642.1 
63 1.25e-05 0.765537 -0.0104646 100.619 100.501 -0.109696 -10645.1 
64 1.27e-05 0.818445 -0.0114432 100.679 100.49 -0.11524 -10648.3 
65 1.29e-05 0.917002 -0.0252021 100.232 100.488 -0.103943 -10642.4 
66 1.31e-05 0.453857 0.011732 100.59 100.517 -0.123608 -10649.2 
67 1.33e-05 0.647034 -0.0100293 100.395 100.475 -0.105855 -10645.7 
68 1.35e-05 0.251591 -0.0271006 100.436 100.517 -0.110158 -10645.9 
69 1.37e-05 -0.212763 0.00939895 100.165 100.478 -0.103238 -10635.6 
70 1.39e-05 0.101559 -0.00860524 100.263 100.508 -0.117062 -10647 
71 1.41e-05 -0.289496 0.0015226 100.285 100.505 -0.0999425 -10641.8 
72 1.43e-05 -0.315514 -0.0101385 100.355 100.498 -0.11661 -10649.2 
73 1.45e-05 0.0412096 0.0255898 100.195 100.487 -0.106413 -10645.6 
74 1.47e-05 0.327407 -0.018537 100.502 100.506 -0.104904 -10646.6 
75 1.49e-05 0.0110379 0.0126045 100.833 100.485 -0.125094 -10643.5 
76 1.51e-05 -0.384426 0.00204507 100.922 100.504 -0.100761 -10647 
77 1.53e-05 0.0172555 0.00150767 101.185 100.499 -0.126697 -10644.3 
78 1.55e-05 -0.0775166 0.0103538 100.906 100.5 -0.105173 -10647 
79 1.57e-05 -0.219774 0.0196097 100.806 100.494 -0.116795 -10645.6 
80 1.59e-05 -0.295453 -0.0243267 100.969 100.517 -0.118889 -10643 
81 1.61e-05 -0.171256 0.0376886 101.082 100.475 -0.116093 -10635.9 
82 1.63e-05 0.200751 -0.00560658 101.193 100.516 -0.112613 -10646.8 
83 1.65e-05 0.0846081 0.0207219 101.4 100.485 -0.12287 -10642.4 
84 1.67e-05 0.0818217 -0.00870025 100.975 100.523 -0.114841 -10651.8 
85 1.69e-05 -0.00781423 0.0220169 100.686 100.475 -0.118635 -10637.4 
86 1.71e-05 0.111294 -0.00527463 100.871 100.508 -0.124867 -10641.4 
87 1.73e-05 0.148397 0.00178476 100.751 100.523 -0.118721 -10648.2 
88 1.75e-05 0.320167 0.00775839 100.79 100.484 -0.109773 -10640.1 
89 1.77e-05 0.321652 0.016463 101.084 100.499 -0.13325 -10648.4 
90 1.79e-05 0.037558 0.00368818 101.007 100.509 -0.116296 -10640.8 
91 1.81e-05 -0.103471 0.0204063 101.345 100.493 -0.134 -10646.6 
92 1.83e-05 0.00563477 0.00517424 101.206 100.503 -0.120392 -10642.6 
93 1.85e-05 0.0819768 -0.00403995 101.18 100.505 -0.11863 -10639.8 
94 1.87e-05 -0.528805 0.00574915 101.274 100.483 -0.121877 -10638.4 
95 1.89e-05 -0.234865 0.00426089 101.409 100.5 -0.13509 -10644 
96 1.91e-05 -0.307726 -0.00642488 101.52 100.496 -0.118328 -10639.8 
97 1.93e-05 -0.254016 -0.0024482 101.036 100.505 -0.1298 -10650.1 
98 1.95e-05 -0.231753 0.0167675 100.854 100.49 -0.125041 -10630.2 
99 1.97e-05 -0.163331 -0.0146414 100.834 100.516 -0.114211 -10642.2 
100 1.99e-05 0.080963 0.0245355 100.957 100.492 -0.13152 -10629.6 
101 2.01e-05 0.23371 -0.00592218 101.347 100.495 -0.118315 -10634.5 
102 2.03e-05 0.185444 -0.0152611 101.193 100.505 -0.124872 -10639.6 
103 2.05e-05 0.445739 -0.00348795 101.068 100.486 -0.120962 -10627.2 
104 2.07e-05 0.457374 -0.00548676 100.86 100.509 -0.124379 -10628.3 
105 2.09e-05 0.0678488 -0.0035623 100.845 100.517 -0.126166 -10636.1 
106 2.11e-05 -0.239267 -0.0071705 100.822 100.484 -0.118573 -10632.3 
107 2.13e-05 -0.0809913 0.00392819 100.962 100.495 -0.122157 -10626.7 
108 2.15e-05 0.362834 -0.00728007 101.198 100.507 -0.11799 -10630.2 
109 2.17e-05 0.218355 -0.0203494 101.588 100.5 -0.125468 -10635.9 
110 2.19e-05 0.422711 0.0129241 101.677 100.497 -0.112088 -10629.8 
111 2.21e-05 0.531532 -0.00841133 101.454 100.503 -0.132147 -10633.3 
112 2.23e-05 0.951 -0.0154312 101.409 100.503 -0.118262 -10635.4 
113 2.25e-05 0.895628 0.00337519 101.379 100.484 -0.12979 -10632 
114 2.27e-05 0.597184 -0.0205719 101.121 100.509 -0.120168 -10632.5 
115 2.29e-05 0.889534 -0.00776854 101.22 100.506 -0.119232 -10635.1 
116 2.31e-05 0.771459 0.0105636 101.52 100.503 -0.123747 -10635.4 
117 2.33e-05 0.382821 0.0027759 101.122 100.476 -0.110772 -10626.1 
118 2.35e-05 0.351282 -0.029593 101.373 100.506 -0.133039 -10636.7 
119 2.37e-05 0.441472 0.00435463 101.438 100.495 -0.127301 -10627 
120 2.39e-05 0.0662701 -0.0152354 101.521 100.506 -0.113921 -10626.8 
121 2.41e-05 0.600426 0.000836337 101.752 100.485 -0.114435 -10626.7 
122 2.43e-05 1.02072 -0.00733748 101.653 100.503 -0.116681 -10629.2 
123 2.45e-05 0.936193 -0.00510103 101.497 100.484 -0.119731 -10617.8 
124 2.47e-05 1.09845 0.0163703 101.384 100.493 -0.123854 -10619.4 
125 2.49e-05 0.589285 -0.0146058 101.378 100.517 -0.121853 -10628.5 
126 2.51e-05 0.411388 -0.000333698 101.538 100.485 -0.126303 -10627.8 
127 2.53e-05 0.427528 -0.00553186 101.593 100.492 -0.112497 -10624.8 
128 2.55e-05 0.256796 -0.000335758 101.545 100.511 -0.117364 -10631 
129 2.57e-05 0.265942 -0.00903967 101.341 100.485 -0.118489 -10616.9 
130 2.59e-05 0.0354184 -0.0235766 101.469 100.504 -0.11394 -10623.4 
131 2.61e-05 0.239235 0.0052858 101.365 100.482 -0.132591 -10627.3 
132 2.63e-05 0.00515998 -0.0104508 101.586 100.496 -0.116336 -10626.9 
133 2.65e-05 0.173197 -0.00444891 101.647 100.491 -0.120189 -10627.1 
134 2.67e-05 0.274054 -0.00247283 101.696 100.485 -0.126002 -10620.1 
135 2.69e-05 0.898548 -0.00892264 101.915 100.49 -0.115578 -10634.2 
136 2.71e-05 0.455286 -0.00642501 101.815 100.501 -0.129901 -10634.5 
137 2.73e-05 0.651326 0.00668806 102.069 100.497 -0.107497 -10627.3 
138 2.75e-05 0.115642 -0.00459604 101.878 100.48 -0.12861 -10619.9 
139 2.77e-05 -0.0312751 -0.0346013 101.802 100.506 -0.115323 -10631.3 
140 2.79e-05 -0.420799 0.00802183 101.65 100.48 -0.113647 -10618 
141 2.81e-05 -0.537418 -0.00750325 101.978 100.498 -0.110355 -10620.1 
142 2.83e-05 0.436012 -0.0204983 102.036 100.477 -0.122047 -10621.2 
143 2.85e-05 0.285925 0.00283582 102.18 100.512 -0.119489 -10625.9 
144 2.87e-05 0.188611 0.00803385 102.117 100.456 -0.105284 -10618.5 
145 2.89e-05 -0.0286064 -0.0259076 102.341 100.514 -0.119473 -10627.5 
146 2.91e-05 -0.183732 0.00467148 102.103 100.462 -0.110391 -10617.5 
147 2.93e-05 -0.174306 -0.00359384 102.036 100.5 -0.124929 -10620.1 
148 2.95e-05 0.00830217 -0.0094372 101.946 100.492 -0.109109 -10620.5 
149 2.97e-05 -0.0772728 0.00587898 101.731 100.475 -0.121468 -10610.6 
150 2.99e-05 0.256336 -0.0200709 101.848 100.5 -0.117092 -10618.4 
151 3.01e-05 -0.110451 0.00162409 101.851 100.505 -0.112174 -10624.2 
152 3.03e-05 0.0306057 -0.0327088 101.969 100.473 -0.121909 -10616.7 
153 3.05e-05 0.00743451 -0.00334328 102.072 100.487 -0.118998 -10616.9 
154 3.07e-05 -0.650665 0.0229675 102.077 100.478 -0.110484 -10617.9 
155 3.09e-05 -0.288881 -0.0101864 102.269 100.47 -0.106593 -10621.7 
156 3.11e-05 0.037584 0.0014909 102.288 100.485 -0.115858 -10617.5 
157 3.13e-05 0.0162681 0.00149888 102.278 100.495 -0.114254 -10633.9 
158 3.15e-05 0.0326798 0.00346612 102.32 100.487 -0.117495 -10623.3 
159 3.17e-05 0.149754 -0.00505925 102.449 100.468 -0.11369 -10624.1 
160 3.19e-05 -0.0625553 0.00685299 102.098 100.488 -0.112466 -10619.7 
161 3.21e-05 -0.0186637 0.0291008 102.06 100.466 -0.118796 -10611.7 
162 3.23e-05 0.612061 0.0172483 102.178 100.494 -0.109412 -10623.5 
163 3.25e-05 0.4296 -0.00989683 101.935 100.473 -0.122994 -10614.5 
164 3.27e-05 0.504898 -0.0207609 101.792 100.479 -0.109699 -10620 
165 3.29e-05 0.366363 0.0273028 101.633 100.488 -0.116267 -10615.5 
166 3.31e-05 0.764906 -0.0147401 101.788 100.478 -0.115208 -10608.3 
167 3.33e-05 0.811932 0.0269637 102.326 100.465 -0.129892 -10616.2 
168 3.35e-05 0.153712 -0.0236001 102.22 100.504 -0.1133 -10619.1 
169 3.37e-05 0.215278 0.00801136 101.942 100.469 -0.119083 -10619 
170 3.39e-05 0.214484 -0.0043424 102.222 100.477 -0.119375 -10616.9 
171 3.41e-05 0.0435738 -0.00394091 102.33 100.489 -0.110542 -10614.4 
172 3.43e-05 0.32795 -0.0029306 102.526 100.489 -0.119996 -10619.7 
173 3.45e-05 0.765268 0.00702274 102.622 100.467 -0.123875 -10621.9 
174 3.47e-05 1.01173 0.00520893 102.53 100.466 -0.115352 -10616.6 
175 3.49e-05 1.00037 -0.0106422 102.767 100.496 -0.121174 -10612.2 
176 3.51e-05 1.2272 -0.00320791 102.642 100.473 -0.106073 -10620 
177 3.53e-05 1.22848 0.0191067 102.757 100.473 -0.120397 -10614.3 
178 3.55e-05 0.768482 -0.00963385 102.66 100.486 -0.110832 -10617.1 
179 3.57e-05 0.676435 0.0102002 102.367 100.478 -0.111286 -10608.9 
180 3.59e-05 0.326028 -0.0221119 102.784 100.493 -0.116661 -10615.5 
181 3.61e-05 0.496921 0.0169144 103.133 100.474 -0.121803 -10605.5 
182 3.63e-05 0.396823 -0.00542585 102.839 100.47 -0.121442 -10611.9 
183 3.65e-05 0.65263 0.00416003 102.81 100.481 -0.116902 -10611.5 
184 3.67e-05 0.833472 0.0161217 102.742 100.474 -0.120175 -10618.4 
185 3.69e-05 0.311454 -0.0113564 102.994 100.475 -0.119387 -10611.3 
186 3.71e-05 0.442252 0.0187357 102.804 100.469 -0.11219 -10613.1 
187 3.73e-05 0.561883 0.0149901 102.731 100.495 -0.119702 -10617 
188 3.75e-05 0.077632 -0.0114935 102.834 100.466 -0.118554 -10611.1 
189 3.77e-05 0.228748 0.0207763 102.929 100.493 -0.118899 -10613.1 
190 3.79e-05 0.209095 -0.00112058 103.15 100.473 -0.11315 -10606.3 
191 3.81e-05 -0.147378 -0.00708328 103.191 100.465 -0.117072 -10603.6 
192 3.83e-05 -0.0630452 0.00070445 103.475 100.5 -0.115001 -10603.9 
193 3.85e-05 -0.309356 0.0294097 103.487 100.472 -0.110795 -10609.5 
194 3.87e-05 -0.177708 -0.00599704 103.258 100.486 -0.117949 -10614.1 
195 3.89e-05 0.0103607 -0.00762795 103.109 100.477 -0.110817 -10601.3 
196 3.91e-05 0.13201 0.0323791 103.138 100.489 -0.118196 -10615.9 
197 3.93e-05 0.220664 -0.000996917 103.118 100.466 -0.101102 -10604.4 
198 3.95e-05 0.373684 0.00353703 103.16 100.477 -0.11275 -10610 
199 3.97e-05 0.187799 -0.00317103 103.554 100.494 -0.109193 -10610.3 
200 3.99e-05 0.183846 0.014083 102.959 100.47 -0.105894 -10606.9 
