ITEM: TIMESTEP
300000
ITEM: NUMBER OF CELLS
200
ITEM: BOX BOUNDS pp ss pp
0 0.0001
0 4e-05
0 0.0001
ITEM: CELLS id yc f_vel[1] f_vel[2] f_mom[1] f_mom[2] f_mom[3] f_q[*] 
1 1e-07 0.353082 -0.00261387 98.6182 100.972 0.047748 -10693 
2 3e-07 0.146655 -0.0179333 98.7943 100.975 0.025224 -10702.5 
3 5e-07 0.0619555 0.00871719 99.0082 100.966 0.0340165 -10691.3 
4 7e-07 -0.154519 -0.0145775 98.8887 101.001 0.0386251 -10706.8 
5 9e-07 -0.25059 0.0144209 98.8807 100.971 0.0316726 -10698.1 
6 1.1e-06 -0.219556 0.0050842 98.9691 100.969 0.0417751 -10699.1 
7 1.3e-06 -0.257478 0.028456 98.8329 100.974 0.0357241 -10705.3 
8 1.5e-06 -0.129308 -0.02339 98.8092 100.98 0.0136898 -10694.4 
9 1.7e-06 0.192232 -0.0143944 99.0823 100.987 0.0494929 -10701.4 
10 1.9e-06 0.272658 0.0232746 99.0812 100.962 0.0305456 -10694.3 
11 2.1e-06 0.0880083 0.00439607 99.0323 100.968 0.0481551 -10691.3 
12 2.3e-06 -0.176743 0.0164398 99.1647 100.965 0.0324813 -10701.4 
13 2.5e-06 -0.238774 -0.0243897 99.207 100.987 0.0326322 -10702.3 
14 2.7e-06 0.0867743 -0.00993456 99.184 100.994 0.0427072 -10705.3 
15 2.9e-06 0.0976275 -0.01288 99.0973 100.973 0.0304104 -10699.9 
16 3.1e-06 0.00294528 -0.0113639 99.2481 100.989 0.0457505 -10705.9 
17 3.3e-06 0.163249 0.0153758 98.9981 100.978 0.0226138 -10690.6 
18 3.5e-06 0.233785 0.00405676 99.0209 100.948 0.0422409 -10693.6 
19 3.7e-06 0.216507 -0.0166371 99.2191 100.993 0.0288008 -10699.6 
20 3.9e-06 -0.070998 0.022121 99.1798 100.977 0.0328774 -10698.9 
21 4.1e-06 -0.189704 -0.0328536 99.4268 100.981 0.0326703 -10698.9 
22 4.3e-06 -0.36683 0.0184296 99.4631 100.983 0.0328154 -10691.4 
23 4.5e-06 -0.0638575 -0.0016768 99.5927 100.956 0.0288901 -10693 
24 4.7e-06 0.308694 -0.0164384 99.5347 100.986 0.0466524 -10690.2 
25 4.9e-06 0.113577 0.000349166 99.8109 101 0.0175146 -10700.8 
26 5.1e-06 -0.0332815 0.012096 99.7504 100.946 0.0350888 -10695.4 
27 5.3e-06 -0.0240324 -0.0305413 99.7269 100.99 0.0285993 -10700 
28 5.5e-06 0.15452 0.0205126 99.7685 100.967 0.0355318 -10687.3 
29 5.7e-06 0.55165 -0.000311184 99.9258 100.94 0.0290646 -10690.8 
30 5.9e-06 0.384745 -0.00435358 99.849 101.009 0.0394903 -10701.6 
31 6.1e-06 0.064155 -0.0212565 99.6745 100.945 0.0151152 -10699.3 
32 6.3e-06 0.292264 0.0442084 99.8068 100.983 0.0417898 -10696.7 
33 6.5e-06 0.283737 -0.0212414 100.041 100.973 0.0300814 -10697.4 
34 6.7e-06 0.0896383 0.00629956 99.9828 100.991 0.0390168 -10698 
35 6.9e-06 0.106996 -0.000510078 100.239 100.959 0.0215741 -10684.6 
36 7.1e-06 0.308696 -0.0112783 100.252 100.979 0.0293949 -10700.1 
37 7.3e-06 0.201643 -0.00262738 99.9048 100.979 0.0280173 -10683.2 
38 7.5e-06 0.450857 0.00380886 100.134 100.983 0.0272319 -10693.4 
39 7.7e-06 0.40551 -0.00990332 100.033 100.967 0.0360292 -10692.4 
40 7.9e-06 0.456451 0.0300328 99.9182 100.973 0.038107 -10699.6 
41 8.1e-06 0.715869 -0.000621566 99.8801 100.959 0.0151848 -10684.3 
42 8.3e-06 0.441378 -0.0163875 99.7972 101.001 0.0333231 -10696.8 
43 8.5e-06 0.251443 -0.0264643 99.9756 100.98 0.0473974 -10699.8 
44 8.7e-06 0.253731 0.00584352 100.029 100.973 0.0377697 -10685.5 
45 8.9e-06 0.496968 0.0271314 100.176 100.952 0.011578 -10699.9 
46 9.1e-06 0.711346 -0.0158739 100.3 101.009 0.0459333 -10697.1 
47 9.3e-06 0.467812 0.0175812 100.474 100.971 0.0300778 -10691.9 
48 9.5e-06 0.401578 0.00126743 100.387 100.968 0.041065 -10692.5 
49 9.7e-06 0.0601715 -0.0109219 100.496 100.966 0.019641 -10699.7 
50 9.9e-06 0.039122 0.0413004 100.397 100.982 0.0363448 -10700.5 
51 1.01e-05 0.00499219 -0.0546551 100.619 100.972 0.025577 -10686.6 
52 1.03e-05 0.0682056 0.0271057 100.454 100.996 0.0333601 -10690.5 
53 1.05e-05 0.0374787 0.0109819 100.617 100.956 0.0328844 -10686.5 
54 1.07e-05 0.320668 -0.0169099 100.626 100.969 0.0307441 -10693.3 
55 1.09e-05 0.0685025 0.0280315 100.79 100.973 0.0386381 -10688.5 
56 1.11e-05 0.0908943 -0.00976387 100.733 100.992 0.0259709 -10690 
57 1.13e-05 0.0647192 -0.0115412 100.66 100.956 0.0367275 -10693.7 
58 1.15e-05 0.234499 0.00565085 100.4 100.982 0.038016 -10693.9 
59 1.17e-05 0.0869495 -0.0101152 100.248 100.996 0.0230259 -10696.5 
60 1.19e-05 0.210956 0.00621406 100.282 100.968 0.0335124 -10690.9 
61 1.21e-05 0.101587 0.0171218 100.215 100.947 0.0346669 -10688.5 
62 1.23e-05 -0.126457 -0.0367666 100.207 101.025 0.0335915 -10695.2 
63 1.25e-05 0.0942873 0.0241546 100.335 100.955 0.0274689 -10686.6 
64 1.27e-05 0.0144461 -0.00707303 100.476 100.967 0.0283823 -10689.4 
65 1.29e-05 0.0278324 -0.00218023 100.821 100.977 0.0379378 -10692.1 
66 1.31e-05 -0.563568 0.0067259 100.602 100.991 0.0264271 -10691.8 
67 1.33e-05 -0.575051 -0.0104311 100.364 100.943 0.0171692 -10684 
68 1.35e-05 -0.21034 0.0184244 100.439 100.979 0.0348484 -10687.9 
69 1.37e-05 0.0680037 -0.0248008 100.589 101.005 0.0390915 -10697.5 
70 1.39e-05 0.258005 -0.0151017 100.465 100.969 0.0414682 -10694.8 
71 1.41e-05 0.0826784 -0.00905993 100.383 100.976 0.0254015 -10685.3 
72 1.43e-05 0.165495 0.021044 100.78 100.993 0.0317458 -10682.9 
73 1.45e-05 0.162261 0.0182013 100.632 100.96 0.022956 -10690.5 
74 1.47e-05 0.04104 -0.0307827 100.801 100.992 0.0373717 -10686.1 
75 1.49e-05 0.0606847 0.0129659 100.905 100.968 0.0406597 -10689.3 
76 1.51e-05 -0.00631786 -0.00126426 100.806 100.982 0.0222257 -10685.1 
77 1.53e-05 -0.207666 0.0020533 100.839 100.985 0.0277939 -10696.3 
78 1.55e-05 -0.104328 0.0127907 100.816 100.972 0.0322847 -10683.2 
79 1.57e-05 0.0897247 -0.00971482 100.903 100.998 0.0257423 -10695.7 
80 1.59e-05 0.263074 -0.00569752 100.768 100.97 0.0335945 -10693.1 
81 1.61e-05 0.207815 0.017506 101.098 100.969 0.0287823 -10681.6 
82 1.63e-05 0.216646 0.0231466 101.01 100.98 0.0286055 -10685.7 
83 1.65e-05 0.365776 -0.0279951 101.291 100.989 0.0352322 -10688 
84 1.67e-05 -0.0433625 -0.0100898 101.353 100.976 0.0309355 -10680.9 
85 1.69e-05 0.0356081 0.0299177 101.063 100.949 0.0382129 -10676 
86 1.71e-05 -0.239391 -0.0234405 101.064 101 0.0264076 -10691.5 
87 1.73e-05 -0.373179 0.0153344 101.077 100.981 0.0383357 -10690.1 
88 1.75e-05 -0.19473 -0.00395098 100.842 100.98 0.0233559 -10682 
89 1.77e-05 -0.574758 -0.0111256 100.692 101.009 0.0231334 -10698.1 
90 1.79e-05 -0.124588 0.00793939 100.686 100.953 0.0334445 -10678.4 
91 1.81e-05 0.187174 -0.0328954 101.085 101.006 0.0304736 -10693.7 
92 1.83e-05 -0.0379579 0.0420789 101.093 100.948 0.0221105 -10679 
93 1.85e-05 -0.17382 -0.0171267 101.349 101.009 0.0276443 -10692.4 
94 1.87e-05 -0.078191 0.0186493 101.345 100.96 0.03707 -10688 
95 1.89e-05 -0.221469 -0.019351 101.233 100.993 0.0297278 -10685.6 
96 1.91e-05 -0.126532 0.00626112 101.129 100.995 0.0372408 -10682.2 
97 1.93e-05 -0.128692 -0.00470355 101.088 100.958 0.0272365 -10684.6 
98 1.95e-05 -0.0445696 0.0478068 101.014 100.956 0.0330244 -10679.5 
99 1.97e-05 -0.451447 -0.025304 101.139 101.015 0.0319847 -10695.4 
100 1.99e-05 -0.365484 0.00969164 101.296 100.972 0.0336117 -10683.1 
101 2.01e-05 -0.5501 0.00600867 101.285 100.979 0.0211504 -10680.6 
102 2.03e-05 -0.296968 -0.0188881 101.351 100.998 0.0510842 -10683.2 
103 2.05e-05 -0.230829 0.0269756 101.172 100.964 0.0331234 -10675.5 
104 2.07e-05 -0.637113 -0.0345499 101.637 101.017 0.0240569 -10682.3 
105 2.09e-05 -0.423104 0.0291421 101.698 100.962 0.0365308 -10682 
106 2.11e-05 -0.56743 0.0255347 101.705 100.975 0.0143642 -10673.2 
107 2.13e-05 -0.715589 -0.0304219 101.445 101.021 0.0334055 -10688.9 
108 2.15e-05 -0.507022 0.0183683 101.542 100.951 0.0356575 -10682.3 
109 2.17e-05 -0.31785 0.031935 101.591 100.999 0.018512 -10680.9 
110 2.19e-05 -0.574365 -0.00967781 101.612 100.942 0.0361289 -10676 
111 2.21e-05 -0.487118 -0.0170408 101.65 101.005 0.025851 -10684.9 
112 2.23e-05 -0.519019 0.0102198 101.755 100.98 0.0359029 -10680.1 
113 2.25e-05 -0.51719 -0.0224739 101.507 101.002 0.0284146 -10675.7 
114 2.27e-05 -0.635169 0.0184941 101.63 100.968 0.0236246 -10682 
115 2.29e-05 -0.771898 -0.00718767 101.711 100.981 0.0286017 -10683.3 
116 2.31e-05 -0.921311 0.03218 101.804 100.985 0.0292524 -10672.7 
117 2.33e-05 -0.806149 -0.0159221 101.845 100.995 0.0347928 -10679.8 
118 2.35e-05 -0.714002 0.00223695 101.882 100.975 0.0324948 -10675.3 
119 2.37e-05 -0.782218 0.0303275 101.877 100.966 0.0175637 -10668.7 
120 2.39e-05 -0.663776 -0.00273152 101.9 100.995 0.0282138 -10680.1 
121 2.41e-05 -0.704606 -0.00459861 101.886 100.984 0.0310478 -10691.4 
122 2.43e-05 -0.555959 -0.000528583 102.207 100.996 0.0259742 -10683.5 
123 2.45e-05 -0.498627 0.0169317 102.072 100.985 0.0223686 -10679.4 
124 2.47e-05 -0.562189 -0.018459 101.7 100.97 0.0266486 -10671.6 
125 2.49e-05 -0.53125 -0.022695 101.731 101.005 0.0293874 -10677.6 
126 2.51e-05 -0.437632 0.0118207 101.815 100.978 0.0283113 -10681.4 
127 2.53e-05 -0.829874 0.00776256 101.755 100.979 0.0185774 -10673.5 
128 2.55e-05 -0.828386 0.00472059 101.898 100.987 0.0262324 -10687.3 
129 2.57e-05 -0.271724 0.0138383 102.138 100.999 0.0315304 -10676.9 
130 2.59e-05 -0.317811 -0.0034926 102.121 100.95 0.0283924 -10661.2 
131 2.61e-05 -0.303072 -0.0189726 102.014 100.999 0.0251795 -10683.5 
132 2.63e-05 -0.116277 0.0153817 102.185 100.977 0.0225721 -10668.2 
133 2.65e-05 -0.40894 0.0217484 102.31 100.992 0.0277199 -10677.4 
134 2.67e-05 -0.295105 -0.0473186 102.224 100.971 0.0366977 -10677 
135 2.69e-05 -0.428763 0.0158965 102.335 101.01 0.00995996 -10672.9 
136 2.71e-05 -0.731023 0.0161089 102.46 100.98 0.0206221 -10665.7 
137 2.73e-05 -0.436747 0.000356249 102.421 100.975 0.0267902 -10673 
138 2.75e-05 -0.407159 0.00609425 102.31 100.977 0.0294283 -10672.9 
139 2.77e-05 -0.618147 0.00312476 102.589 100.985 0.0215146 -10676.8 
140 2.79e-05 -0.829032 0.025157 102.787 100.978 0.0190905 -10666.5 
141 2.81e-05 -0.5241 -0.00978343 102.697 100.981 0.0381474 -10677.2 
142 2.83e-05 -0.244845 0.00948181 102.396 100.972 0.0184124 -10674.2 
143 2.85e-05 -0.639777 -0.000959823 102.467 101.027 0.00396789 -10675.1 
144 2.87e-05 -0.714349 -0.00391645 102.801 100.939 0.0240922 -10655.7 
145 2.89e-05 -0.687121 -0.016339 102.657 100.992 0.0373312 -10665.5 
146 2.91e-05 -0.930782 0.00523061 102.689 100.989 0.0189872 -10670.6 
147 2.93e-05 -0.771056 0.0157662 102.671 100.988 0.0329062 -10670.7 
148 2.95e-05 -0.551609 0.019097 102.659 100.967 0.0270352 -10667.4 
149 2.97e-05 -0.687732 -0.0277271 102.375 100.991 0.0145602 -10661.7 
150 2.99e-05 -0.551234 0.00236645 102.306 100.97 0.036439 -10669.7 
151 3.01e-05 -0.477997 -0.00256132 102.412 100.995 0.00868795 -10662.5 
152 3.03e-05 -0.752486 0.0138172 102.567 100.979 0.0338908 -10671.1 
153 3.05e-05 -0.541714 -0.0254689 102.423 100.971 0.0156088 -10662.7 
154 3.07e-05 -0.596981 -0.00121107 102.648 100.977 0.027842 -10670.2 
155 3.09e-05 -0.717497 0.0151933 102.562 101.004 0.0168898 -10677 
156 3.11e-05 -0.603894 0.0159221 102.674 100.964 0.0252082 -10671.9 
157 3.13e-05 -0.61873 -0.0408433 102.619 100.982 0.0358617 -10658.7 
158 3.15e-05 -0.461544 0.0415664 102.495 100.978 0.0145954 -10663.8 
159 3.17e-05 -0.520843 -0.039473 102.491 100.981 0.0290865 -10661.6 
160 3.19e-05 -0.487988 0.00591622 102.306 100.971 0.035785 -10663.8 
161 3.21e-05 -0.363162 0.0149819 102.45 100.975 0.0228975 -10648.1 
162 3.23e-05 -0.358096 -0.0107416 102.699 100.99 0.0177614 -10667.8 
163 3.25e-05 -0.266432 -0.0133374 102.673 100.993 0.016346 -10663 
164 3.27e-05 -0.122331 0.00586821 102.58 100.971 0.0280058 -10661.8 
165 3.29e-05 -0.616021 -0.0234114 102.521 100.997 0.0238662 -10661.9 
166 3.31e-05 -0.721832 0.0473609 102.531 100.948 0.0393685 -10654.1 
167 3.33e-05 -0.493394 -0.0253289 102.329 100.993 0.0205821 -10667.5 
168 3.35e-05 -0.585742 0.00357622 102.352 101.002 0.0182522 -10659.1 
169 3.37e-05 -0.818901 -0.00637483 102.752 100.951 0.0216552 -10657.7 
170 3.39e-05 -0.775317 -0.0155881 102.627 101.004 0.0309876 -10659.1 
171 3.41e-05 -0.825612 0.0447532 102.748 100.976 0.0162941 -10657.8 
172 3.43e-05 -0.429586 -0.0153071 102.833 100.991 0.0344957 -10650.6 
173 3.45e-05 -0.298053 0.00636752 102.981 100.971 0.0238359 -10652.5 
174 3.47e-05 -0.738101 0.000505992 102.967 100.973 0.0358268 -10653.3 
175 3.49e-05 -0.98973 0.0282765 102.959 100.987 0.0282698 -10651.1 
176 3.51e-05 -0.939274 -0.0159287 102.71 100.985 0.029192 -10654.8 
177 3.53e-05 -0.703926 0.00491872 102.724 100.968 0.0158124 -10644.6 
178 3.55e-05 -0.24679 0.043683 102.838 100.958 0.0228237 -10641.4 
179 3.57e-05 -0.143174 -0.04703 103.041 101.019 0.0398733 -10661.2 
180 3.59e-05 -0.564662 0.0213737 103.076 100.975 0.0119626 -10638.4 
181 3.61e-05 -0.382278 -0.0145935 103.357 100.968 0.0358776 -10652 
182 3.63e-05 -0.466449 0.0129467 103.283 100.983 0.0144339 -10642.7 
183 3.65e-05 -0.363761 0.0234116 103.173 100.97 0.0313929 -10643.8 
184 3.67e-05 -0.312381 -0.00140014 103.166 100.972 0.0183018 -10644 
185 3.69e-05 -0.305835 0.0222937 103.199 100.997 0.0291927 -10634.6 
186 3.71e-05 -0.272818 -0.00471304 103.52 100.965 0.0218197 -10643.5 
187 3.73e-05 -0.143866 0.0367086 103.308 100.988 0.032821 -10634.1 
188 3.75e-05 -0.346019 -0.0225068 103.54 100.996 0.0188946 -10638.8 
189 3.77e-05 -0.353173 0.0195633 103.39 100.949 0.0420798 -10629 
190 3.79e-05 -0.23125 -0.00774665 103.501 100.995 0.0232759 -10637.8 
191 3.81e-05 -0.60828 0.00465983 103.226 100.951 0.0193026 -10632.5 
192 3.83e-05 -0.410517 0.0135767 103.328 101.03 0.024711 -10635.3 
193 3.85e-05 -0.796439 0.0162947 103.49 100.953 0.0335864 -10628.8 
194 3.87e-05 -0.50768 0.0171046 103.341 100.987 0.0180317 -10629 
195 3.89e-05 -0.471314 0.000654385 103.247 100.969 0.0306822 -10623.5 
196 3.91e-05 -0.407902 -0.0155439 103.344 100.977 0.023292 -10628 
197 3.93e-05 -0.38303 0.0234685 103.427 100.986 0.0272779 -10624.8 
198 3.95e-05 -0.429455 0.00695796 103.415 100.977 0.029797 -10624.8 
199 3.97e-05 -0.111651 -0.0074551 103.387 100.971 0.0238389 -10625.5 
200 3.99e-05 -0.360622 0.00800266 103.375 100.977 0.0320758 -10623.2 
