ITEM: TIMESTEP
200000
ITEM: NUMBER OF CELLS
1000
ITEM: BOX BOUNDS pp ss pp
0 0.0001
0 4e-05
0 0.0001
ITEM: CELLS id yc f_vel[1] f_vel[2] f_mom[1] f_mom[2] f_mom[3] f_q[*] 
1 2e-08 0.144938 0.0253356 98.5754 100.762 -0.0130455 -10668.9 
2 6e-08 0.201263 -0.0373901 98.543 100.892 -0.0477802 -10689.4 
3 1e-07 0.129257 0.128828 98.46 100.825 -0.0564681 -10658 
4 1.4e-07 0.133658 -0.170673 98.4585 100.908 0.0055696 -10693.6 
5 1.8e-07 0.201397 0.109761 98.361 100.87 -0.0870319 -10677.7 
6 2.2e-07 0.0599613 -0.0432245 98.5315 100.79 -0.0104415 -10659.9 
7 2.6e-07 -0.0731549 -0.000226718 98.5574 100.863 -0.0428835 -10699.5 
8 3e-07 -0.0502701 0.00540593 98.5987 100.878 -0.069949 -10657.1 
9 3.4e-07 -0.0314946 0.0284966 98.5967 100.878 0.000894049 -10698.7 
10 3.8e-07 0.17797 0.0140399 98.7304 100.822 -0.0360018 -10670.3 
11 4.2e-07 0.180215 -0.0628565 98.7018 100.902 -0.056879 -10682 
12 4.6e-07 0.287894 0.0688603 98.5716 100.75 -0.0190318 -10664.9 
13 5e-07 0.211766 -0.0103848 98.5408 100.865 -0.0280457 -10670.4 
14 5.4e-07 0.397049 -0.0841199 98.5284 100.891 -0.0547501 -10703.8 
15 5.8e-07 -0.0322598 0.116142 98.5473 100.872 -0.00934624 -10667.7 
16 6.2e-07 0.208112 -0.0664146 98.6747 100.767 -0.0715928 -10666 
17 6.6e-07 0.00265563 0.00632522 98.8736 100.892 -0.0192134 -10680.3 
18 7e-07 0.336548 -0.00816974 98.5668 100.867 -0.0739716 -10677.3 
19 7.4e-07 0.261979 0.0515689 98.4862 100.784 -0.0132646 -10686.2 
20 7.8e-07 0.522115 -0.029882 98.658 100.912 -0.0287482 -10689.5 
21 8.2e-07 0.525219 -0.000346265 98.6383 100.898 -0.019954 -10657.5 
22 8.6e-07 0.551429 0.0139179 98.748 100.823 -0.0471706 -10674.7 
23 9e-07 0.361594 0.0838599 98.7045 100.776 -0.0588981 -10656.3 
24 9.4e-07 0.409742 -0.112122 99.0014 100.945 -0.0024151 -10721.7 
25 9.8e-07 0.447648 0.0694258 98.8736 100.843 -0.0605711 -10668.1 
26 1.02e-06 0.467929 0.0384511 98.8199 100.807 -0.0570399 -10657 
27 1.06e-06 0.507793 -0.0672775 99.0052 100.869 -0.0491527 -10670.6 
28 1.1e-06 0.413723 0.0330601 98.7688 100.831 -0.00392238 -10690.2 
29 1.14e-06 0.386401 -0.00530298 98.6309 100.846 -0.0634143 -10659.2 
30 1.18e-06 0.632456 -0.0196061 98.7698 100.827 0.00720366 -10653.6 
31 1.22e-06 0.43062 0.0314301 98.8006 100.925 -0.0720854 -10708.9 
32 1.26e-06 0.51644 -0.0959325 98.8397 100.893 -0.0500346 -10670.7 
33 1.3e-06 0.496113 0.0773627 98.8637 100.77 -0.0458241 -10662.2 
34 1.34e-06 0.267348 0.00121581 98.7336 100.903 -0.0292061 -10674.6 
35 1.38e-06 0.276539 0.0794702 98.869 100.785 0.00308146 -10667.7 
36 1.42e-06 0.586626 9.44391e-06 98.9759 100.831 -0.0657607 -10672.1 
37 1.46e-06 0.476822 -0.115073 98.7859 100.956 -0.0626629 -10679.8 
38 1.5e-06 0.372171 0.108189 98.788 100.824 0.01049 -10672.3 
39 1.54e-06 0.313187 -0.000723164 98.8298 100.771 -0.0543061 -10659.2 
40 1.58e-06 0.250177 -0.0543481 98.9415 100.962 -0.0202624 -10697.3 
41 1.62e-06 0.338465 0.0484411 98.8792 100.865 -0.123348 -10672.6 
42 1.66e-06 0.155262 -0.0628079 99.1608 100.775 0.00987975 -10658.7 
43 1.7e-06 0.178604 0.0332678 98.9316 100.84 0.0129756 -10672 
44 1.74e-06 0.526494 0.085447 98.8716 100.93 -0.0622237 -10662.4 
45 1.78e-06 0.493109 -0.0797759 98.8567 100.834 -0.0580007 -10688.9 
46 1.82e-06 0.524441 0.00457299 98.9338 100.863 -0.0437694 -10673.8 
47 1.86e-06 0.463182 0.04406 98.9862 100.776 -0.028454 -10649.2 
48 1.9e-06 0.325497 0.0288997 98.7621 100.904 -0.0419636 -10685.3 
49 1.94e-06 0.12933 -0.0968238 98.7817 100.861 -0.0389368 -10658.7 
50 1.98e-06 0.189851 0.0981816 98.8465 100.838 -0.0530991 -10688.9 
51 2.02e-06 -0.0866478 0.0334333 98.8439 100.793 -0.0520454 -10664.2 
52 2.06e-06 -0.0110788 0.0242773 98.8504 100.9 0.0200908 -10679.8 
53 2.1e-06 0.160009 -0.0689151 98.8174 100.913 -0.0489824 -10678.3 
54 2.14e-06 0.414363 -0.00469494 98.8812 100.748 -0.0661857 -10665.1 
55 2.18e-06 0.188294 0.0690994 99.042 100.938 -0.0267225 -10671.8 
56 2.22e-06 0.153197 -0.0732733 98.8583 100.826 -0.0117992 -10675.5 
57 2.26e-06 0.246449 0.0881233 98.9776 100.844 -0.0681822 -10671.7 
58 2.3e-06 -0.141309 -0.0484813 98.959 100.862 -0.00644448 -10676.4 
59 2.34e-06 0.188767 0.0375095 99.0608 100.885 -0.0587204 -10668.2 
60 2.38e-06 0.198892 -0.00952053 99.0234 100.82 -0.0462086 -10671.3 
61 2.42e-06 0.090795 -0.0829833 98.8121 100.893 -0.030076 -10678.5 
62 2.46e-06 0.240181 0.110708 98.9301 100.78 -0.0607678 -10667.1 
63 2.5e-06 0.218013 -0.0311284 98.9841 100.907 0.00491911 -10665.5 
64 2.54e-06 0.128906 0.0076547 99.0252 100.803 -0.0724621 -10679.4 
65 2.58e-06 -0.0315657 -0.0422284 98.9967 100.944 -0.0356064 -10682 
66 2.62e-06 -0.187545 0.0604531 98.9185 100.752 0.00145789 -10672.3 
67 2.66e-06 0.0346608 -0.0443373 99.0752 100.958 -0.112745 -10666.1 
68 2.7e-06 -0.0170777 0.0415706 98.9376 100.74 0.0192702 -10655.4 
69 2.74e-06 -0.10278 0.0441277 98.8554 100.822 -0.0724986 -10683.8 
70 2.78e-06 -0.0653956 -0.0467609 98.9938 101.013 -0.0118449 -10686.8 
71 2.82e-06 -0.0574595 0.0274609 98.8744 100.718 -0.0567957 -10665.1 
72 2.86e-06 -0.126083 0.00477862 99.0648 100.905 -0.0454028 -10674.6 
73 2.9e-06 -0.0319013 0.0234071 98.8991 100.805 -0.00497079 -10657.9 
74 2.94e-06 -0.124748 -0.0160852 99.2014 100.888 -0.0730643 -10669 
75 2.98e-06 -0.144564 0.0226723 99.0288 100.785 -0.0140553 -10687.2 
76 3.02e-06 0.0214284 -0.0127971 99.1976 100.978 -0.0684717 -10665.7 
77 3.06e-06 0.158286 -0.00735971 99.1575 100.804 -0.0161833 -10677.4 
78 3.1e-06 0.281983 0.00407881 99.1401 100.827 -0.0286239 -10671.2 
79 3.14e-06 0.082736 0.0622131 98.9958 100.858 -0.0565935 -10658.7 
80 3.18e-06 0.14813 -0.0271953 99.1001 100.873 -0.0247296 -10685.4 
81 3.22e-06 -0.0307359 -0.0148395 99.1963 100.888 -0.040232 -10677.6 
82 3.26e-06 0.116156 0.0416857 99.3052 100.779 -0.0222462 -10678.4 
83 3.3e-06 -0.0560618 -0.030169 99.1178 100.915 -0.0553826 -10657.9 
84 3.34e-06 -0.0170371 0.0383972 99.1321 100.814 -0.0466807 -10677.4 
85 3.38e-06 -0.0461935 0.0290994 99.2907 100.884 -0.0427201 -10664.3 
86 3.42e-06 0.0748111 -0.0583652 99.3212 100.858 -0.0250408 -10687.7 
87 3.46e-06 -0.0883417 0.0545464 99.2461 100.799 -0.0563146 -10668 
88 3.5e-06 -0.223025 0.0517277 99.2784 100.893 -0.0185363 -10658.4 
89 3.54e-06 -0.0714704 -0.0242188 99.3779 100.751 -0.0742099 -10671.9 
90 3.58e-06 -0.0402263 -0.0304014 99.4175 100.979 -0.0451667 -10684.8 
91 3.62e-06 -0.104179 0.0735217 99.1879 100.733 0.017479 -10657 
92 3.66e-06 -0.027091 -0.0289212 99.4949 100.951 -0.108001 -10673.7 
93 3.7e-06 -0.131328 -0.0164952 99.5012 100.805 0.0233612 -10675.3 
94 3.74e-06 -0.176188 -0.0276126 99.6386 100.872 -0.047659 -10655.4 
95 3.78e-06 0.0503992 0.080225 99.5613 100.829 -0.0585027 -10663.2 
96 3.82e-06 -0.112848 -0.00441209 99.4436 100.891 -0.0343283 -10685.5 
97 3.86e-06 -0.153524 -0.0433219 99.3974 100.823 -0.042608 -10654.2 
98 3.9e-06 -0.47331 0.0282157 99.7247 100.895 -0.0267616 -10664.3 
99 3.94e-06 -0.334061 0.040367 99.4849 100.804 -0.0840429 -10666 
100 3.98e-06 -0.207034 -0.0254306 99.3577 100.843 0.0293713 -10675.5 
101 4.02e-06 -0.0781363 0.00928733 99.3285 100.935 -0.098501 -10683.4 
102 4.06e-06 -0.00846052 0.0382169 99.3425 100.75 0.0155864 -10648.3 
103 4.1e-06 0.0825398 -0.045814 99.4169 100.938 -0.0425244 -10688.3 
104 4.14e-06 -0.0207747 -0.0147441 99.5326 100.814 -0.0774561 -10659.7 
105 4.18e-06 -0.298505 0.0628705 99.6302 100.906 -0.0342147 -10669.9 
106 4.22e-06 -0.00415835 -0.0128753 99.3878 100.798 -0.00930934 -10653 
107 4.26e-06 -0.113216 0.0401477 99.3636 100.797 -0.0525228 -10668.8 
108 4.3e-06 0.0815203 -0.0823245 99.2323 100.969 -0.0189824 -10694.4 
109 4.34e-06 0.0344101 0.0582379 99.1127 100.877 -0.0387342 -10658.8 
110 4.38e-06 0.172764 0.00325963 99.1857 100.752 -0.0609312 -10642.6 
111 4.42e-06 -0.092206 0.0120307 99.5362 100.882 -0.0139315 -10672.2 
112 4.46e-06 0.06417 0.00773791 99.3854 100.831 -0.0866089 -10674.7 
113 4.5e-06 0.00784322 0.00852441 99.4376 100.902 -0.00875374 -10681.4 
114 4.54e-06 0.0162262 -0.0113009 99.6998 100.859 -0.05404 -10656.2 
115 4.58e-06 0.231248 0.163869 99.69 100.798 -0.0136909 -10648.5 
116 4.62e-06 -0.0838858 -0.145666 99.4722 100.909 -0.0347538 -10686.6 
117 4.66e-06 -0.0396892 -0.00413139 99.4174 100.854 -0.0558026 -10674.8 
118 4.7e-06 -0.101987 -0.0309459 99.433 100.805 -0.0313952 -10643.9 
119 4.74e-06 -0.0877994 0.0715268 99.2735 100.808 -0.0465457 -10667.2 
120 4.78e-06 -0.147962 -0.0188866 99.376 100.978 -0.0535408 -10684.4 
121 4.82e-06 -0.102711 -0.0102084 99.224 100.796 -0.00658244 -10663 
122 4.86e-06 0.106511 -0.0343912 99.3958 100.825 -0.021908 -10660.5 
123 4.9e-06 -0.0801688 0.113766 99.2884 100.868 -0.0636245 -10661.8 
124 4.94e-06 -0.0499502 -0.0706722 99.3923 100.905 -0.0617555 -10692.5 
125 4.98e-06 -0.0923304 0.0443766 99.3559 100.727 0.00577223 -10651 
126 5.02e-06 0.332147 -0.0414432 99.6036 101.018 -0.0517645 -10678.2 
127 5.06e-06 0.0399171 -0.0114254 99.5081 100.776 -0.0343987 -10669.7 
128 5.1e-06 -0.128159 0.0343355 99.4966 100.878 -0.0242161 -10657.4 
129 5.14e-06 0.0113676 -0.0391118 99.5244 100.798 -0.0509334 -10677.6 
130 5.18e-06 -0.00663516 0.076604 99.4619 100.909 -0.0540393 -10669.1 
131 5.22e-06 -0.244021 -0.0256435 99.6048 100.796 0.00389621 -10681 
132 5.26e-06 -0.0116428 0.0130162 99.4472 100.925 -0.0650907 -10673.1 
133 5.3e-06 -0.070563 -0.0133302 99.5652 100.797 -0.0442946 -10632 
134 5.34e-06 0.260257 0.149073 99.4867 100.788 0.00936004 -10677.6 
135 5.38e-06 0.212492 -0.130811 99.718 100.937 -0.0718508 -10678.2 
136 5.42e-06 0.218167 0.0474414 99.672 100.9 -0.0340674 -10688 
137 5.46e-06 0.0599074 -0.0821136 99.6016 100.847 -0.00849158 -10652.5 
138 5.5e-06 0.31509 0.159678 99.6118 100.765 -0.0640476 -10651.7 
139 5.54e-06 0.138978 -0.0621867 99.6746 100.826 -0.02893 -10653.1 
140 5.58e-06 0.119425 -0.00822745 99.731 100.972 -0.06164 -10699.4 
141 5.62e-06 0.353516 -0.00224572 99.5027 100.802 0.00243197 -10649.5 
142 5.66e-06 0.370383 0.00868117 99.4361 100.823 -0.0516358 -10654.5 
143 5.7e-06 0.500315 0.0720678 99.603 100.833 -0.03951 -10653.7 
144 5.74e-06 0.41679 -0.0829781 99.4713 100.87 -0.0099593 -10681.3 
145 5.78e-06 0.343878 0.0209782 99.6347 100.869 -0.0548421 -10662.9 
146 5.82e-06 0.257232 0.0533076 99.6218 100.824 -0.0107432 -10670.3 
147 5.86e-06 0.442558 0.0455806 99.5954 100.895 -0.0814278 -10644.5 
148 5.9e-06 0.435374 -0.114335 99.6952 100.818 -0.0238579 -10676.4 
149 5.94e-06 0.552717 -0.0524936 99.6 100.923 -0.0210417 -10681.1 
150 5.98e-06 0.382101 0.191635 99.5168 100.751 -0.07189 -10648.2 
151 6.02e-06 0.247803 -0.0586528 99.5811 100.908 -0.0196209 -10678.5 
152 6.06e-06 0.0523201 -0.0454649 99.5762 100.873 -0.00626072 -10666.9 
153 6.1e-06 0.191827 0.0981741 99.6547 100.808 -0.039063 -10666.3 
154 6.14e-06 0.152796 0.00722724 99.6515 100.833 -0.0607632 -10649.4 
155 6.18e-06 0.230031 -0.0439147 99.658 100.865 -0.0393806 -10678.6 
156 6.22e-06 0.1934 0.028068 99.5315 100.923 -0.041596 -10675.7 
157 6.26e-06 0.261536 0.0123073 99.3839 100.808 -0.00517884 -10654.8 
158 6.3e-06 0.157186 -0.00889425 99.4104 100.838 -0.0790541 -10667.7 
159 6.34e-06 0.499204 0.0364043 99.4273 100.822 -0.0321007 -10658.2 
160 6.38e-06 0.373547 -0.00560078 99.6141 100.869 -0.0363955 -10664.9 
161 6.42e-06 0.0968719 0.0215894 99.4881 100.895 -0.0343884 -10667.8 
162 6.46e-06 0.208186 -0.0962249 99.6668 100.819 -0.0431252 -10683.8 
163 6.5e-06 0.16685 0.0578467 99.5984 100.913 -0.00853838 -10676 
164 6.54e-06 0.11087 0.081555 99.5169 100.797 -0.0767236 -10637 
165 6.58e-06 0.228793 -0.0385206 99.4481 100.784 -0.0151228 -10663.3 
166 6.62e-06 0.520096 0.0160817 99.4154 100.966 -0.0123471 -10678.5 
167 6.66e-06 0.340643 -0.0736218 99.5017 100.809 -0.0823003 -10680.6 
168 6.7e-06 0.0736877 0.121815 99.4814 100.81 -0.0191598 -10631.1 
169 6.74e-06 0.264724 -0.0811109 99.4712 100.872 -0.017355 -10675.7 
170 6.78e-06 0.32061 0.00563977 99.5871 100.918 -0.0702919 -10701 
171 6.82e-06 -0.0380715 0.0858607 99.3364 100.812 -0.0134057 -10629.6 
172 6.86e-06 0.316038 -0.0725427 99.3601 100.797 -0.034963 -10666.9 
173 6.9e-06 0.224473 0.0346069 99.4912 100.893 -0.0524716 -10677.6 
174 6.94e-06 0.264666 0.0382304 99.4234 100.897 -0.0473784 -10665.5 
175 6.98e-06 0.340837 -0.1236 99.605 100.818 -0.0541017 -10680 
176 7.02e-06 0.166971 0.185548 99.6372 100.828 -0.01822 -10640 
177 7.06e-06 0.287517 -0.110431 99.6913 100.866 -0.0404568 -10662 
178 7.1e-06 0.441747 0.0564223 99.8138 100.946 -0.0616883 -10690.9 
179 7.14e-06 0.292559 -0.00761642 99.5895 100.728 0.00858367 -10645.8 
180 7.18e-06 0.273216 0.0861625 99.7591 100.905 -0.0576092 -10664 
181 7.22e-06 0.237114 -0.0954259 99.5664 100.824 -0.0616077 -10667.9 
182 7.26e-06 0.200371 -0.00817593 99.7136 100.921 -0.0204271 -10674.3 
183 7.3e-06 0.143417 -0.0035729 99.6123 100.85 -0.0370387 -10676.8 
184 7.34e-06 -0.283825 0.106365 99.9123 100.791 -0.0442494 -10629.8 
185 7.38e-06 -0.00680632 -0.0335056 99.7667 100.849 -0.00159421 -10683.4 
186 7.42e-06 0.221272 -0.00299308 99.6557 100.882 -0.0599816 -10656.8 
187 7.46e-06 -0.0333795 0.0687284 99.7056 100.874 -0.0306146 -10685.2 
188 7.5e-06 0.384666 -0.0886223 99.8967 100.82 -0.0833286 -10657.3 
189 7.54e-06 0.133464 0.047069 99.7111 100.864 0.0100892 -10666.2 
190 7.58e-06 0.0274069 0.0574128 99.6924 100.788 -0.0753045 -10635.8 
191 7.62e-06 0.13926 -0.0369503 99.8735 100.891 -0.0277585 -10675.7 
192 7.66e-06 0.115258 -0.0152061 99.8725 100.89 -0.0437722 -10696.3 
193 7.7e-06 0.111657 -0.016839 99.6645 100.892 -0.0249122 -10659.6 
194 7.74e-06 -0.0772437 0.0704879 99.6464 100.734 -0.0475559 -10641.1 
195 7.78e-06 -0.054721 0.0232016 99.8609 100.933 -0.014044 -10680.9 
196 7.82e-06 -0.0309241 -0.0800559 99.6662 100.916 -0.0409371 -10682.6 
197 7.86e-06 -0.00989239 0.0932462 99.6896 100.739 -0.060695 -10649.3 
198 7.9e-06 0.0486458 -0.00915618 99.6471 100.883 0.0195149 -10660.5 
199 7.94e-06 0.117793 -0.0252314 99.789 100.871 -0.0979598 -10674.4 
200 7.98e-06 0.163538 -0.0193628 99.7537 100.881 -0.0121396 -10671.6 
201 8.02e-06 0.189871 0.0432238 99.652 100.832 -0.0118645 -10646.7 
202 8.06e-06 0.461354 0.00275269 99.6 100.787 -0.0448154 -10647 
203 8.1e-06 0.481194 0.0200063 99.7389 100.896 -0.076629 -10692.9 
204 8.14e-06 0.377185 -0.0535976 99.7762 100.917 -0.0132033 -10671.1 
205 8.18e-06 0.173176 0.0129224 99.8307 100.841 -0.03367 -10664.9 
206 8.22e-06 0.270628 0.127966 99.7951 100.744 -0.045155 -10635.6 
207 8.26e-06 0.105595 -0.051092 99.8013 100.92 -0.00241947 -10675.6 
208 8.3e-06 0.107598 -0.0414191 99.8099 100.906 -0.0656366 -10685.6 
209 8.34e-06 0.105313 0.0754424 99.8228 100.821 -0.0312013 -10640.1 
210 8.38e-06 0.279985 0.000686132 99.895 100.787 -0.0372568 -10660.1 
211 8.42e-06 0.0987617 -0.0448843 99.8846 100.931 -0.0418489 -10684.3 
212 8.46e-06 0.148927 0.0182563 99.6957 100.856 -0.0491027 -10662.2 
213 8.5e-06 -0.0223177 0.0753864 99.7515 100.847 0.00177006 -10659 
214 8.54e-06 0.0208651 -0.062948 99.8173 100.845 -0.0512167 -10666.2 
215 8.58e-06 -0.055497 0.0489824 99.8176 100.838 -0.043137 -10658.7 
216 8.62e-06 0.174279 0.0383681 99.9249 100.88 -0.0139925 -10672.3 
217 8.66e-06 0.0119314 -0.00827055 100.041 100.856 -0.0602134 -10678.5 
218 8.7e-06 0.248747 -0.00721382 100.103 100.834 -0.0245985 -10655.8 
219 8.74e-06 0.0791268 0.0267284 100.154 100.751 -0.0278513 -10640.2 
220 8.78e-06 0.2251 -0.0220841 100.2 100.964 -0.0580475 -10690 
221 8.82e-06 0.0672794 -0.0640614 99.9421 100.844 -0.0219246 -10657 
222 8.86e-06 0.0283187 0.125562 100.1 100.896 -0.0512022 -10667.7 
223 8.9e-06 0.0369839 -0.017621 100.048 100.712 -0.021614 -10647.7 
224 8.94e-06 0.255306 0.0611624 100.117 100.931 -0.0482717 -10665.7 
225 8.98e-06 0.392326 -0.0462393 100.073 100.892 -0.0113595 -10679 
226 9.02e-06 0.210834 -0.00421191 100.175 100.789 -0.0432713 -10647.9 
227 9.06e-06 0.0940033 0.0558326 100.254 100.896 -0.0344567 -10676 
228 9.1e-06 0.105985 -0.00211651 100.063 100.812 -0.0134689 -10655.6 
229 9.14e-06 0.0828432 0.0720617 100.143 100.799 -0.0859585 -10650 
230 9.18e-06 -0.0452933 -0.135722 100.383 100.994 0.00685583 -10692.8 
231 9.22e-06 0.0558767 0.0670209 100.19 100.81 -0.039912 -10661.3 
232 9.26e-06 0.12814 0.0502376 100.2 100.795 -0.0477839 -10643.8 
233 9.3e-06 0.111186 -0.0684179 100.085 100.934 -0.0622427 -10674.8 
234 9.34e-06 0.187004 0.0541856 100.068 100.739 -0.0193175 -10660 
235 9.38e-06 0.232086 -0.046408 100.244 101.013 -0.0344376 -10685.4 
236 9.42e-06 0.347094 0.0188764 100.114 100.787 -0.014588 -10641.6 
237 9.46e-06 0.243575 0.105036 100.132 100.747 -0.0764066 -10646.3 
238 9.5e-06 0.132448 -0.119993 100.199 100.958 -0.000237638 -10673 
239 9.54e-06 0.396426 0.01331 100.162 100.803 -0.0671271 -10670.7 
240 9.58e-06 0.0414221 0.065501 100.124 100.854 -0.0162615 -10656 
241 9.62e-06 -0.0188694 -0.0106344 100.399 100.879 -0.0510615 -10666.2 
242 9.66e-06 -0.113715 0.0211011 100.168 100.837 -0.0124335 -10636.6 
243 9.7e-06 0.166682 0.00625864 100.116 100.868 -0.0712733 -10670.3 
244 9.74e-06 0.0852448 -0.00675689 100.131 100.897 -0.0333218 -10682.1 
245 9.78e-06 0.0380275 0.0213421 100.177 100.811 -0.0104802 -10657.9 
246 9.82e-06 0.0442973 0.0252749 100.18 100.894 -0.062771 -10646.2 
247 9.86e-06 0.0150224 -0.0338092 100.086 100.824 -0.0280917 -10662.9 
248 9.9e-06 0.194835 -0.0199326 100.081 100.803 -0.0518945 -10663.6 
249 9.94e-06 0.180338 0.0206217 100.164 100.949 -0.0182762 -10668.6 
250 9.98e-06 0.179938 0.0845014 100.188 100.77 -0.0387217 -10656.5 
251 1.002e-05 0.0723586 -0.0194172 100.268 100.864 -0.0198037 -10666.9 
252 1.006e-05 0.0791573 -0.101398 100.07 100.838 -0.0481099 -10655.4 
253 1.01e-05 0.292329 0.127771 100.014 100.941 -0.0696396 -10655 
254 1.014e-05 0.363901 -0.0590891 99.9321 100.71 -0.00585032 -10675.6 
255 1.018e-05 0.486726 0.0211532 99.9923 100.937 -0.0520798 -10667.9 
256 1.022e-05 0.367769 -0.0125472 99.9775 100.876 -0.0651316 -10653.3 
257 1.026e-05 0.342091 0.0638934 100.123 100.752 -0.00994025 -10650.2 
258 1.03e-05 0.34265 -0.017401 99.9106 100.959 -0.0205257 -10656.6 
259 1.034e-05 0.392578 -0.0728052 99.9345 100.824 -0.0963637 -10666.2 
260 1.038e-05 0.333799 0.0414187 99.9528 100.809 0.0160718 -10665.2 
261 1.042e-05 0.512784 0.0740692 100.125 100.934 -0.049745 -10659.2 
262 1.046e-05 0.559721 -0.043849 100.062 100.776 -0.0445172 -10653 
263 1.05e-05 0.48266 0.0397021 99.982 100.883 0.000178105 -10658.5 
264 1.054e-05 0.510054 0.0285827 100.171 100.826 -0.0488647 -10680.2 
265 1.058e-05 0.416351 -0.0272933 100.185 100.902 -0.0444475 -10643.9 
266 1.062e-05 0.760208 -0.0289808 100.239 100.783 -0.0491122 -10664.6 
267 1.066e-05 0.148284 0.0513525 100.184 100.926 -0.0209613 -10678.4 
268 1.07e-05 0.276895 -0.0107308 100.171 100.826 -0.0335504 -10638.2 
269 1.074e-05 0.37089 0.0550518 99.9204 100.794 -0.0534691 -10640.2 
270 1.078e-05 0.322764 -0.057649 100.134 100.909 -0.0447747 -10686.5 
271 1.082e-05 0.000784639 -0.0066177 100.101 100.862 -0.0166499 -10663.5 
272 1.086e-05 -0.018101 0.0925335 100.177 100.78 -0.0119616 -10621 
273 1.09e-05 -0.0311216 -0.0178819 100.208 100.871 -0.0665465 -10684.6 
274 1.094e-05 0.0868338 -0.0341235 100.255 100.882 -0.019573 -10661.9 
275 1.098e-05 0.112516 0.0244614 100.381 100.919 -0.0253975 -10678.7 
276 1.102e-05 0.142761 -0.0682981 100.324 100.812 -0.0736415 -10651.8 
277 1.106e-05 -0.00291393 0.115346 100.215 100.83 -0.0200119 -10650 
278 1.11e-05 -0.206093 -0.0132888 100.069 100.833 -0.069614 -10635.2 
279 1.114e-05 -0.187414 -0.0272909 100.22 100.893 0.0077886 -10678.2 
280 1.118e-05 -0.296659 0.00273742 100.3 100.861 -0.067727 -10668.6 
281 1.122e-05 -0.171418 0.053483 100.41 100.822 -0.0150226 -10659.7 
282 1.126e-05 -0.187168 -0.036101 100.299 100.85 -0.041949 -10644.5 
283 1.13e-05 -0.0377288 -0.0104605 100.362 100.89 -0.0229551 -10675.2 
284 1.134e-05 0.0057155 0.0896202 100.292 100.784 -0.059283 -10658 
285 1.138e-05 -0.162859 -0.00121502 100.396 100.885 -0.0495304 -10669.3 
286 1.142e-05 -0.156733 -0.0338554 100.393 100.878 0.0092962 -10673.3 
287 1.146e-05 -0.226623 0.0842447 100.509 100.815 -0.0939598 -10642.5 
288 1.15e-05 -0.146603 -0.0676604 100.531 100.88 0.0018411 -10678.5 
289 1.154e-05 0.0803023 0.0813732 100.422 100.804 -0.0417327 -10669 
290 1.158e-05 0.0674095 0.0253287 100.308 100.877 -0.0371123 -10653.5 
291 1.162e-05 0.168189 -0.0395784 100.266 100.829 -0.0544655 -10641.6 
292 1.166e-05 0.00991781 0.0251039 100.278 100.883 -0.0192382 -10679.1 
293 1.17e-05 -0.00890397 -0.0586101 100.347 100.809 -0.0478221 -10646.9 
294 1.174e-05 0.0909968 0.0906187 100.342 100.908 -0.0435483 -10665.9 
295 1.178e-05 -0.15279 -0.037278 100.528 100.835 -0.0465406 -10654.8 
296 1.182e-05 0.0605026 0.0607011 100.322 100.772 -0.0281093 -10641.9 
297 1.186e-05 0.0622494 -0.118177 100.499 100.974 -0.027626 -10707.4 
298 1.19e-05 -0.0898131 0.054103 100.256 100.849 -0.053583 -10638.6 
299 1.194e-05 0.175421 0.0383826 100.434 100.731 -0.0415271 -10640.1 
300 1.198e-05 0.0837313 -0.00597492 100.242 100.901 -0.0152902 -10675 
301 1.202e-05 0.276823 -0.0263144 100.384 100.928 -0.0400356 -10679.7 
302 1.206e-05 0.129305 0.0549554 100.242 100.83 -0.0358179 -10639.7 
303 1.21e-05 0.143794 0.0310228 100.264 100.797 -0.0482035 -10641.6 
304 1.214e-05 0.162174 -0.0355687 100.289 100.886 -0.0369485 -10680.2 
305 1.218e-05 -0.0266861 0.104557 100.255 100.85 -0.0305424 -10642.4 
306 1.222e-05 0.12666 -0.0974459 100.365 100.837 -0.025231 -10683.4 
307 1.226e-05 0.0394744 -0.02783 100.349 100.925 -0.0468094 -10666.8 
308 1.23e-05 0.311713 0.0547748 100.233 100.797 -0.0414553 -10641.2 
309 1.234e-05 0.154268 -0.0164703 100.169 100.825 -0.0137203 -10657.2 
310 1.238e-05 0.206482 -0.0399521 100.396 100.929 -0.0442214 -10676.9 
311 1.242e-05 0.284673 0.0832577 100.293 100.808 -0.0698955 -10669.3 
312 1.246e-05 0.107609 -0.0170961 100.164 100.891 0.00508981 -10644 
313 1.25e-05 -0.0424523 -0.00118419 100.14 100.81 -0.0520411 -10654.4 
314 1.254e-05 0.00220619 0.00354856 100.172 100.854 -0.0306832 -10672 
315 1.258e-05 -0.103407 0.0564285 100.138 100.821 -0.0309239 -10643.6 
316 1.262e-05 -0.0365385 -0.125519 100.223 100.95 -0.0557572 -10674.6 
317 1.266e-05 -0.196657 0.159701 100.232 100.756 -0.00986879 -10651 
318 1.27e-05 -0.286645 -0.152006 100.328 100.997 -0.0381555 -10681.5 
319 1.274e-05 -0.259788 0.0742814 100.058 100.734 -0.0520449 -10611.5 
320 1.278e-05 -0.216129 0.0129021 100.365 100.874 0.00681017 -10672.7 
321 1.282e-05 -0.164268 0.00757004 100.365 100.812 -0.0683421 -10638.8 
322 1.286e-05 -0.228859 -0.0500818 100.281 101.027 -0.0456152 -10700.2 
323 1.29e-05 -0.0810431 0.0957383 100.259 100.728 -0.0191394 -10623.5 
324 1.294e-05 -0.245737 -0.0281216 100.277 100.832 -0.0621339 -10663.6 
325 1.298e-05 -0.280008 0.0676266 100.307 100.873 -0.00682633 -10648.4 
326 1.302e-05 -0.253819 -0.0976619 100.442 100.867 -0.0666264 -10667.5 
327 1.306e-05 -0.241271 0.0875608 100.375 100.845 -0.0161876 -10649.6 
328 1.31e-05 -0.389111 -0.0244621 100.563 100.837 0.0206954 -10654.5 
329 1.314e-05 -0.0713332 0.0242246 100.518 100.856 -0.0999409 -10660.8 
330 1.318e-05 -0.31343 -0.0187884 100.579 100.905 -0.0179603 -10675.3 
331 1.322e-05 -0.283605 0.00968811 100.548 100.826 -0.0367228 -10638.5 
332 1.326e-05 -0.285192 0.00689014 100.521 100.853 -0.0411223 -10666.4 
333 1.33e-05 -0.438244 0.0525471 100.634 100.825 -0.0153827 -10631.6 
334 1.334e-05 -0.37108 -0.058071 100.699 100.889 -0.0299124 -10671.3 
335 1.338e-05 -0.194606 0.0818204 100.539 100.795 -0.0389551 -10643.9 
336 1.342e-05 -0.0888405 -0.0220016 100.69 100.962 -0.0255451 -10675.7 
337 1.346e-05 0.0567826 0.019141 100.749 100.82 -0.0601196 -10647.8 
338 1.35e-05 -0.0472769 0.00719374 100.571 100.809 -0.0232404 -10650 
339 1.354e-05 -0.00280157 -0.000752121 100.494 100.884 -0.045054 -10655.7 
340 1.358e-05 -0.0949391 0.000115455 100.573 100.83 0.000215133 -10648.3 
341 1.362e-05 -0.0297193 -0.00540399 100.55 100.909 -0.0601677 -10667.9 
342 1.366e-05 0.0435778 0.054186 100.589 100.851 -0.0616429 -10661.7 
343 1.37e-05 0.13844 -0.0133671 100.603 100.801 0.009117 -10645.6 
344 1.374e-05 0.235399 0.0384309 100.629 100.902 -0.0383509 -10668.6 
345 1.378e-05 0.0717733 -0.0466912 100.857 100.891 -0.05266 -10655.4 
346 1.382e-05 0.0376348 -0.0171494 100.756 100.755 -0.0511423 -10656.7 
347 1.386e-05 -0.227276 -0.0326624 100.576 100.893 -0.0327469 -10649.9 
348 1.39e-05 -0.185494 0.138396 100.646 100.868 -0.0104156 -10668.1 
349 1.394e-05 -0.200706 -0.107215 100.679 100.868 -0.0148212 -10657.9 
350 1.398e-05 -0.0647085 0.106187 100.878 100.795 -0.0333455 -10647.6 
351 1.402e-05 0.162857 -0.0636043 100.749 100.869 -0.0500169 -10641 
352 1.406e-05 0.0227602 0.08618 100.783 100.802 -0.0358091 -10642.1 
353 1.41e-05 0.213055 -0.0949977 100.79 100.922 -0.00889802 -10689.1 
354 1.414e-05 0.177144 -0.0124578 100.782 100.913 -0.0555226 -10665.6 
355 1.418e-05 0.235549 0.047283 100.619 100.818 -0.0618949 -10629.3 
356 1.422e-05 0.258139 0.091263 100.599 100.729 -0.000606583 -10665.5 
357 1.426e-05 0.189981 -0.0990379 100.832 100.989 -0.0172153 -10664.7 
358 1.43e-05 0.243404 0.131571 100.786 100.814 -0.0812216 -10659.7 
359 1.434e-05 0.288405 -0.1004 100.754 100.861 0.00489343 -10645.6 
360 1.438e-05 0.670267 0.0557194 100.934 100.793 -0.0263084 -10669.4 
361 1.442e-05 0.682659 -0.030973 100.856 100.914 -0.0556121 -10659.1 
362 1.446e-05 0.228845 -0.0267374 100.735 100.81 -0.0255735 -10640.1 
363 1.45e-05 0.479122 0.101867 100.784 100.931 -0.0380306 -10673.6 
364 1.454e-05 0.222857 -0.00898105 100.836 100.736 -0.0185652 -10637.7 
365 1.458e-05 0.145815 -0.0427296 100.762 100.913 -0.0334582 -10662 
366 1.462e-05 0.15095 -0.000952444 100.755 100.849 -0.0281683 -10656.2 
367 1.466e-05 0.147847 0.0500072 100.796 100.878 -0.0775232 -10657 
368 1.47e-05 0.295339 0.0736443 100.861 100.821 -0.00861877 -10644.4 
369 1.474e-05 0.0204734 -0.100189 100.823 100.917 -0.0222286 -10667 
370 1.478e-05 0.184085 -0.0474148 100.887 100.827 -0.0554374 -10650.2 
371 1.482e-05 0.000334471 0.156495 101.057 100.804 -0.0234637 -10638.7 
372 1.486e-05 0.0152568 -0.0684408 100.991 100.885 -0.0680909 -10673.8 
373 1.49e-05 0.188165 0.0839115 100.914 100.84 0.00546064 -10661.4 
374 1.494e-05 0.194762 -0.0920153 100.804 100.874 -0.0559003 -10645.5 
375 1.498e-05 0.0274812 0.0428649 100.721 100.888 -0.0271152 -10670.7 
376 1.502e-05 -0.00254676 0.0655644 100.951 100.759 0.00642299 -10621.8 
377 1.506e-05 0.129643 -0.0706905 101.017 100.909 -0.0900827 -10682.3 
378 1.51e-05 0.00574115 0.0426968 100.861 100.891 -0.00936313 -10649.7 
379 1.514e-05 0.406152 0.0137586 100.786 100.832 -0.0412391 -10670.7 
380 1.518e-05 0.444294 -0.0245144 100.813 100.806 -0.0493755 -10634.5 
381 1.522e-05 0.497659 0.043497 100.696 100.896 -5.28513e-07 -10652.3 
382 1.526e-05 0.465213 -0.0751704 100.658 100.848 -0.0201584 -10680.8 
383 1.53e-05 0.385055 0.0791046 100.627 100.899 -0.0905998 -10657.4 
384 1.534e-05 0.39049 -0.0572092 100.561 100.834 -0.0170069 -10660.9 
385 1.538e-05 0.479492 0.129991 100.551 100.804 -0.0429061 -10626.3 
386 1.542e-05 0.549855 -0.0190204 100.673 100.854 -0.0222241 -10664.5 
387 1.546e-05 0.506362 -0.0705001 100.669 100.919 -0.0518672 -10672 
388 1.55e-05 0.641901 0.0603113 100.67 100.826 -0.0475109 -10634.5 
389 1.554e-05 0.598447 0.0282845 100.654 100.829 -0.0251715 -10645.6 
390 1.558e-05 0.430376 0.0372546 100.557 100.773 -0.00252819 -10645.3 
391 1.562e-05 0.35685 -0.06804 100.824 100.965 -0.0720455 -10669.1 
392 1.566e-05 0.26869 -0.0404417 100.849 100.898 -0.0251982 -10672.2 
393 1.57e-05 0.482438 0.115886 100.784 100.747 -0.0320687 -10628.3 
394 1.574e-05 0.622261 -0.00792174 100.801 100.874 -0.011631 -10660.5 
395 1.578e-05 0.494992 0.00851597 100.775 100.893 -0.0522393 -10656.1 
396 1.582e-05 0.243243 0.00416507 100.681 100.848 -0.0348736 -10659.1 
397 1.586e-05 0.635713 0.0238491 100.792 100.829 -0.0180928 -10647.2 
398 1.59e-05 0.330332 -0.0068582 100.708 100.854 -0.0494268 -10648.7 
399 1.594e-05 0.213188 0.011127 100.745 100.85 -0.017513 -10664.4 
400 1.598e-05 0.329728 -0.0153954 100.607 100.892 -0.0686422 -10659.6 
401 1.602e-05 0.277635 0.026664 100.764 100.878 0.00117104 -10658.8 
402 1.606e-05 0.124339 -0.00612476 100.732 100.762 -0.0516875 -10620.6 
403 1.61e-05 0.0848883 0.0392716 101.001 100.927 -0.042432 -10681 
404 1.614e-05 0.18135 -0.0654119 100.866 100.9 -0.0157632 -10661.5 
405 1.618e-05 0.318486 0.125654 100.803 100.716 -0.0749002 -10628.9 
406 1.622e-05 0.211152 0.0366467 100.787 100.863 -0.00739922 -10654.7 
407 1.626e-05 0.289134 -0.0588259 100.755 100.95 -0.0233817 -10680.5 
408 1.63e-05 0.52164 -0.00464678 100.937 100.808 -0.0434234 -10651.9 
409 1.634e-05 0.333591 0.0860349 100.924 100.834 -0.0447596 -10643.9 
410 1.638e-05 0.520557 0.0206238 101.096 100.86 -0.0354912 -10652.8 
411 1.642e-05 0.439864 -0.0287894 100.918 100.832 0.0270033 -10665.9 
412 1.646e-05 0.483232 0.00185977 100.953 100.865 -0.0951687 -10641 
413 1.65e-05 0.253536 0.00654722 101.091 100.904 -0.0158511 -10671.5 
414 1.654e-05 0.472847 0.055935 100.913 100.805 -0.0246639 -10642.8 
415 1.658e-05 0.399706 -0.043041 101.01 100.905 -0.0287414 -10633.6 
416 1.662e-05 0.550544 0.0897251 101.089 100.797 -0.0418933 -10661.9 
417 1.666e-05 0.535452 -0.0018621 101.027 100.865 -0.0141155 -10658.5 
418 1.67e-05 0.572691 -0.0714583 100.989 100.892 -0.0521982 -10658.9 
419 1.674e-05 0.259847 0.0637984 100.993 100.817 -0.00457882 -10655.4 
420 1.678e-05 0.183856 -0.0382213 100.991 100.832 -0.0670102 -10658 
421 1.682e-05 0.228722 0.076529 101.176 100.911 -0.0115966 -10663.7 
422 1.686e-05 0.345357 0.0417371 101.144 100.839 -0.0324929 -10644.4 
423 1.69e-05 0.196294 -0.0755143 101.144 100.884 -0.057027 -10666.1 
424 1.694e-05 0.0067518 0.110559 101.048 100.813 0.0171442 -10644 
425 1.698e-05 0.00838173 -0.0245001 101.126 100.909 -0.0871536 -10662.7 
426 1.702e-05 0.0501666 -0.0463019 101.003 100.853 0.000660221 -10663 
427 1.706e-05 0.0434487 0.0713388 100.981 100.78 -0.0330228 -10644.7 
428 1.71e-05 0.13662 -0.0451914 101.125 100.897 -0.0540839 -10668 
429 1.714e-05 0.296212 -0.0107107 101.174 100.894 -0.0211972 -10650.4 
430 1.718e-05 0.315364 0.110215 101.207 100.768 -0.0363624 -10639.3 