ITEM: TIMESTEP
300000
ITEM: NUMBER OF CELLS
200
ITEM: BOX BOUNDS pp ss pp
0 0.0001
0 4e-05
0 0.0001
ITEM: CELLS id yc f_vel[1] f_vel[2] f_mom[1] f_mom[2] f_mom[3] f_q[*] 
1 1e-07 0.574941 -0.00723621 98.8687 100.964 0.0656218 -10686.4 
2 3e-07 0.174901 0.00983906 98.8436 100.978 0.0561007 -10672.2 
3 5e-07 -0.026111 -0.0389284 98.8067 100.984 0.0300474 -10686.6 
4 7e-07 -0.152865 0.0366263 98.8291 100.936 0.0522686 -10682.2 
5 9e-07 -0.158489 -0.00973124 98.835 100.977 0.0551191 -10683 
6 1.1e-06 -0.429043 -0.01271 98.8514 100.989 0.0572166 -10686.6 
7 1.3e-06 -0.273383 -0.00965887 98.9499 100.964 0.0470302 -10688.2 
8 1.5e-06 -0.102053 0.0166579 98.9946 100.984 0.055245 -10682.1 
9 1.7e-06 -0.132539 0.0118785 98.8968 100.941 0.0518322 -10687.1 
10 1.9e-06 -0.252031 -0.0198648 99.1226 101.001 0.0519368 -10682.1 
11 2.1e-06 -0.277535 0.00191003 99.2345 101.005 0.0439204 -10686.1 
12 2.3e-06 -0.442626 -0.00877812 99.0897 100.95 0.0553509 -10674.2 
13 2.5e-06 -0.298531 0.0145259 98.934 100.967 0.0347613 -10685.1 
14 2.7e-06 -0.26127 0.0058393 99.0266 100.953 0.0585037 -10682.2 
15 2.9e-06 0.0313884 -0.0104095 99.243 100.968 0.0535672 -10678.8 
16 3.1e-06 -0.277957 0.0034913 99.1787 100.986 0.0566794 -10690.1 
17 3.3e-06 -0.349698 0.0158483 98.914 100.972 0.0378448 -10679.7 
18 3.5e-06 0.140415 -0.0106343 99.1341 100.963 0.0569246 -10682.7 
19 3.7e-06 0.0275427 0.0278579 99.2189 100.985 0.0521811 -10685.1 
20 3.9e-06 -0.0863465 -0.0136698 99.1056 100.969 0.0379236 -10685.4 
21 4.1e-06 -0.568238 0.00755571 98.9966 100.969 0.0635759 -10676.1 
22 4.3e-06 -0.270376 -2.3696e-05 99.3509 100.961 0.0363868 -10681.2 
23 4.5e-06 0.000624793 0.0293185 99.2755 100.958 0.0590288 -10679.2 
24 4.7e-06 -0.053935 0.0116423 99.4268 100.993 0.0451513 -10684 
25 4.9e-06 0.124336 -0.0175598 99.4299 100.96 0.0469234 -10685.7 
26 5.1e-06 0.23358 0.0140273 99.3822 100.98 0.048191 -10676.5 
27 5.3e-06 -0.0893479 0.0219845 99.6079 100.937 0.0640976 -10671.2 
28 5.5e-06 -0.208718 -0.0243422 99.7359 100.997 0.0381947 -10685.7 
29 5.7e-06 0.028659 0.00165621 99.7579 100.987 0.0401827 -10681.7 
30 5.9e-06 0.123013 0.0114308 99.8147 100.945 0.0516822 -10677.7 
31 6.1e-06 -0.240064 0.0345655 99.6095 100.989 0.0494123 -10680.6 
32 6.3e-06 -0.153281 -0.00560127 99.7675 100.978 0.0466138 -10683.6 
33 6.5e-06 -0.0854893 -0.0177009 99.719 100.96 0.0547086 -10672.1 
34 6.7e-06 -0.253711 0.0325999 99.835 100.955 0.056692 -10681.4 
35 6.9e-06 -0.130154 0.0124415 99.9698 100.972 0.0484 -10673.6 
36 7.1e-06 0.0151154 -0.0189316 100 100.977 0.0535142 -10682.4 
37 7.3e-06 -0.0406582 0.0219923 99.9974 100.972 0.0641019 -10673 
38 7.5e-06 -0.2032 0.010301 100.19 100.971 0.0523341 -10679.7 
39 7.7e-06 -0.432846 -0.0211283 100.08 100.977 0.0512951 -10680.2 
40 7.9e-06 -0.330247 0.00501927 100.113 100.956 0.0492849 -10673.5 
41 8.1e-06 -0.203232 0.0352069 100.274 100.979 0.0543706 -10675.6 
42 8.3e-06 -0.00970047 -0.0182697 100.258 100.987 0.0397492 -10674.7 
43 8.5e-06 -0.095094 0.023561 100.216 100.952 0.0559596 -10673.7 
44 8.7e-06 0.0504836 -0.00513596 100.469 100.963 0.0573021 -10674.8 
45 8.9e-06 -0.0535285 0.0336307 100.361 100.972 0.0513852 -10671.9 
46 9.1e-06 -0.0528833 -0.00572545 100.346 100.97 0.0461973 -10679.4 
47 9.3e-06 -0.0771498 -0.00311301 100.265 100.963 0.0659594 -10683.4 
48 9.5e-06 0.013379 0.0143464 100.389 100.978 0.0481742 -10676 
49 9.7e-06 -0.00681915 0.0167288 100.218 100.967 0.0602962 -10685 
50 9.9e-06 -0.0980861 0.0181623 100.212 100.974 0.0432146 -10669.5 
51 1.01e-05 0.397263 0.00993194 100.271 100.969 0.0453874 -10666.1 
52 1.03e-05 0.262854 -0.00249835 100.379 100.973 0.0632244 -10681.2 
53 1.05e-05 0.447003 -0.0107099 100.379 100.986 0.0405824 -10668.5 
54 1.07e-05 0.391444 0.022848 100.332 100.951 0.0583269 -10677.2 
55 1.09e-05 0.56869 -0.00779707 100.064 100.977 0.0401235 -10676.7 
56 1.11e-05 0.36624 0.0343511 100.331 100.969 0.0553139 -10666.9 
57 1.13e-05 0.100533 0.000678819 100.39 100.964 0.061109 -10677.8 
58 1.15e-05 -0.110528 0.0139143 100.464 100.975 0.0541055 -10669.7 
59 1.17e-05 0.02669 0.00812366 100.447 100.997 0.044049 -10672.7 
60 1.19e-05 -0.306787 0.00375021 100.47 100.961 0.0494282 -10676 
61 1.21e-05 -0.236082 0.0343484 100.587 100.946 0.0595736 -10656.8 
62 1.23e-05 -0.219257 -0.013798 100.534 100.982 0.0447237 -10672.9 
63 1.25e-05 -0.11418 0.0183967 100.738 100.966 0.0676632 -10672.1 
64 1.27e-05 -0.179673 -0.0118343 100.7 100.968 0.0445698 -10668.5 
65 1.29e-05 -0.0434258 0.0221059 100.875 100.962 0.0659947 -10665.4 
66 1.31e-05 0.0526717 0.00674928 100.678 100.967 0.0457299 -10664 
67 1.33e-05 -0.039608 -0.0168535 100.616 101.008 0.0639211 -10677.6 
68 1.35e-05 -0.147199 0.0262574 100.498 100.945 0.0649227 -10654 
69 1.37e-05 -0.560809 0.0181518 100.498 100.953 0.0221025 -10667.6 
70 1.39e-05 -0.378452 0.00276832 100.777 100.983 0.0691037 -10664.7 
71 1.41e-05 0.132421 0.0156515 100.705 100.964 0.0540417 -10678.4 
72 1.43e-05 -0.090807 0.000294352 100.538 100.982 0.0444738 -10666.3 
73 1.45e-05 -0.00309382 0.0203491 100.567 100.972 0.0613029 -10674 
74 1.47e-05 0.0895859 -0.0359479 100.744 100.985 0.0436718 -10669.8 
75 1.49e-05 -0.0981173 0.0466951 100.652 100.946 0.0475054 -10661.3 
76 1.51e-05 -0.337568 -0.0130205 100.612 100.983 0.0566464 -10664.2 
77 1.53e-05 -0.340794 -0.00642953 100.675 100.968 0.0308063 -10667 
78 1.55e-05 -0.346691 -0.0162541 100.808 100.97 0.0581051 -10665.2 
79 1.57e-05 -0.406109 0.0173533 100.851 100.958 0.0561449 -10671 
80 1.59e-05 -0.11431 0.00494452 101.05 100.982 0.0611503 -10670.5 
81 1.61e-05 -0.490386 -0.00522524 100.902 100.981 0.0548239 -10658.5 
82 1.63e-05 -0.289315 0.0251767 100.782 100.961 0.0539865 -10660.4 
83 1.65e-05 -0.139536 -0.0304545 100.649 100.98 0.042685 -10667.5 
84 1.67e-05 0.116241 0.00698743 100.785 100.96 0.0480328 -10660.3 
85 1.69e-05 0.061154 0.00514816 101.019 100.957 0.0570468 -10656.8 
86 1.71e-05 -0.203203 0.0105772 101.065 100.969 0.050232 -10664.2 
87 1.73e-05 -0.151775 -0.00106376 101.123 100.975 0.0472425 -10657.3 
88 1.75e-05 0.0591542 -0.00659755 101.01 100.969 0.0566634 -10670.6 
89 1.77e-05 0.17893 -0.0041137 100.922 100.982 0.050818 -10668.3 
90 1.79e-05 0.190426 0.0214088 101.28 100.943 0.0456458 -10655.6 
91 1.81e-05 0.401743 -0.0293592 101.48 100.98 0.0467224 -10673.5 
92 1.83e-05 0.362978 -0.0147985 101.472 100.963 0.0586417 -10661.5 
93 1.85e-05 0.255427 0.00037666 101.499 100.991 0.0440413 -10666.5 
94 1.87e-05 0.161102 0.0257379 101.31 100.958 0.0490691 -10667.5 
95 1.89e-05 0.218477 0.0184512 101.464 100.968 0.0661306 -10653.2 
96 1.91e-05 0.152564 -0.0280604 101.577 100.977 0.0352876 -10658.1 
97 1.93e-05 0.0948478 0.00642518 101.471 100.963 0.0428749 -10671.3 
98 1.95e-05 0.165971 -0.0201325 101.461 100.969 0.0482759 -10662.2 
99 1.97e-05 0.376738 0.0382832 101.252 100.946 0.050514 -10656.1 
100 1.99e-05 0.0285918 -0.0527129 101.136 101.006 0.0599933 -10666.3 
101 2.01e-05 0.134946 0.0146601 101.239 100.966 0.038657 -10655.7 
102 2.03e-05 0.0872854 -0.0194388 101.386 100.975 0.0519274 -10663.5 
103 2.05e-05 0.118149 0.000941714 101.338 100.953 0.0394689 -10652.3 
104 2.07e-05 -0.482973 -0.00536756 101.266 100.984 0.0625418 -10659.9 
105 2.09e-05 -0.165169 -0.0156 101.228 100.959 0.0481885 -10651.1 
106 2.11e-05 0.195053 0.0104781 101.303 100.956 0.0450907 -10656.7 
107 2.13e-05 -0.0230813 -0.01371 101.304 100.991 0.0505707 -10660.2 
108 2.15e-05 -0.0558703 -0.0123041 101.251 100.966 0.0390145 -10650.2 
109 2.17e-05 0.0145954 -0.0418556 101.001 100.973 0.0643347 -10652.4 
110 2.19e-05 0.188503 0.0152287 101.248 100.96 0.0517483 -10650.2 
111 2.21e-05 0.202921 -0.0433003 101.386 100.994 0.0481169 -10659.5 
112 2.23e-05 0.0191903 0.00741326 101.351 100.963 0.0506234 -10654.6 
113 2.25e-05 -0.173293 -0.0241885 101.3 100.974 0.0412621 -10653.9 
114 2.27e-05 0.345402 0.00691641 101.452 100.959 0.0489577 -10652.1 
115 2.29e-05 0.101439 -0.0119013 101.705 100.967 0.0641737 -10649.1 
116 2.31e-05 -0.284773 -0.00412272 101.706 100.975 0.0492054 -10649.6 
117 2.33e-05 -0.391789 -0.0453853 101.335 100.977 0.0486768 -10647.4 
118 2.35e-05 -0.368018 0.0143131 101.41 100.964 0.0519351 -10656.4 
119 2.37e-05 -0.365865 -0.0100045 101.521 100.966 0.0492339 -10655.6 
120 2.39e-05 -0.009274 -0.0205139 101.373 100.993 0.0373346 -10656.5 
121 2.41e-05 -0.109875 -0.00311985 101.546 100.946 0.0570841 -10646 
122 2.43e-05 -0.476484 0.0273018 101.653 100.949 0.0427614 -10635.8 
123 2.45e-05 -0.316812 -0.0327707 101.815 100.993 0.0584199 -10652.8 
124 2.47e-05 -0.300365 -0.00824579 101.958 100.975 0.039814 -10652 
125 2.49e-05 -0.29372 -0.0249999 102.056 100.972 0.058771 -10649.8 
126 2.51e-05 -0.503726 0.00267703 102.058 100.97 0.0442695 -10648.2 
127 2.53e-05 -0.511557 -0.0159405 101.883 100.961 0.0520024 -10643.3 
128 2.55e-05 -0.45907 0.029027 101.879 100.962 0.0488327 -10639.7 
129 2.57e-05 -0.564818 -0.0144539 101.785 100.975 0.0572641 -10641.7 
130 2.59e-05 -0.344877 -0.012651 101.88 101.004 0.0353346 -10646.8 
131 2.61e-05 -0.379684 -0.033495 102.128 100.945 0.0496038 -10646.4 
132 2.63e-05 -0.0823447 0.0261311 102.04 100.972 0.0579606 -10642.5 
133 2.65e-05 -0.0972912 -0.0120778 101.971 100.977 0.0430017 -10641.1 
134 2.67e-05 -0.232859 0.0185128 102.339 100.971 0.0619642 -10645.9 
135 2.69e-05 -0.262219 -0.0280123 102.079 100.973 0.0285909 -10644.7 
136 2.71e-05 -0.216529 0.0241925 101.969 100.977 0.0677207 -10631.6 
137 2.73e-05 -0.489324 0.00735069 102.301 100.945 0.0376989 -10634.2 
138 2.75e-05 -0.413298 -0.0135955 102.239 100.968 0.0532417 -10639.6 
139 2.77e-05 -0.432297 -0.0110182 102.11 100.957 0.0573695 -10626.8 
140 2.79e-05 0.00944231 -0.0447162 102.061 101.004 0.0452088 -10638.6 
141 2.81e-05 -0.217958 0.04097 102.299 100.957 0.0404097 -10636.8 
142 2.83e-05 -0.209937 -0.00243867 102.191 100.964 0.0513472 -10638.7 
143 2.85e-05 -0.476832 -0.0244372 102.265 100.99 0.0453545 -10639.7 
144 2.87e-05 -0.416698 0.00196314 102.275 100.958 0.053358 -10638.2 
145 2.89e-05 -0.482872 0.00410648 102.504 100.975 0.0492582 -10630.2 
146 2.91e-05 -0.278615 0.00274157 102.704 100.966 0.0434274 -10635.5 
147 2.93e-05 0.0207904 0.00641593 102.522 100.959 0.0460267 -10635.6 
148 2.95e-05 -0.179906 0.0104968 102.428 100.979 0.0429231 -10627.3 
149 2.97e-05 -0.2088 -0.00098844 102.644 100.936 0.0472269 -10623.4 
150 2.99e-05 -0.480734 -0.04083 102.498 100.972 0.0606351 -10633.5 
151 3.01e-05 -0.458182 0.0294562 102.534 100.983 0.0374349 -10633.4 
152 3.03e-05 -0.676278 -0.0160986 102.403 100.974 0.0333627 -10628.7 
153 3.05e-05 -0.5111 0.027452 102.464 100.969 0.0565415 -10627.9 
154 3.07e-05 -0.255397 -0.0425407 102.853 100.97 0.0493951 -10636.9 
155 3.09e-05 -0.613517 0.00023379 102.97 100.979 0.0286826 -10632.9 
156 3.11e-05 -0.18763 0.0442946 102.741 100.964 0.0575011 -10627.3 
157 3.13e-05 -0.314969 -0.00271055 102.818 100.981 0.0469708 -10628.9 
158 3.15e-05 -0.537942 -0.0133486 103.108 100.97 0.0409235 -10626.6 
159 3.17e-05 -0.350059 -0.00743016 103.186 100.964 0.0460306 -10622.6 
160 3.19e-05 -0.480531 0.0313378 102.992 100.942 0.0520885 -10624.4 
161 3.21e-05 -0.336714 -0.024136 102.767 100.997 0.038173 -10630.9 
162 3.23e-05 -0.367634 -0.00702282 102.782 100.979 0.0519104 -10623.8 
163 3.25e-05 -0.135376 0.0180039 102.989 100.978 0.0340119 -10628.6 
164 3.27e-05 -0.30183 -0.026318 102.905 100.99 0.0421802 -10620.9 
165 3.29e-05 -0.471263 0.0100744 102.919 100.947 0.0551809 -10618 
166 3.31e-05 -0.13578 -0.00523361 103.065 100.97 0.0324448 -10623.8 
167 3.33e-05 -0.51566 0.0145885 102.969 100.946 0.0454622 -10619.2 
168 3.35e-05 -0.161475 -0.0142786 103.024 100.98 0.045938 -10622 
169 3.37e-05 0.174724 0.00697684 103.119 100.998 0.0423315 -10618.4 
170 3.39e-05 -0.167575 0.00884236 103.085 100.971 0.0402541 -10610.2 
171 3.41e-05 -0.329803 -0.00579442 103.295 100.97 0.0509045 -10620.5 
172 3.43e-05 -0.0120296 0.0125406 103.337 100.98 0.0618595 -10619.9 
173 3.45e-05 -0.000808154 -0.026273 103.376 100.975 0.0493073 -10616.8 
174 3.47e-05 -0.265001 0.0434668 103.233 100.938 0.0257762 -10595.6 
175 3.49e-05 -0.180567 -0.0382923 102.979 101.008 0.0468176 -10615 
176 3.51e-05 -0.309439 -0.00450783 102.767 100.96 0.047765 -10613.4 
177 3.53e-05 0.0580822 -0.00544896 102.849 100.956 0.0401548 -10605.7 
178 3.55e-05 0.216877 0.0207251 103.2 100.975 0.0607577 -10605.6 
179 3.57e-05 0.230154 -0.0271949 103.187 100.972 0.0444101 -10600.3 
180 3.59e-05 0.045091 -0.0130276 103.144 100.975 0.0512254 -10606.2 
181 3.61e-05 -0.140418 -0.00730754 103.142 100.965 0.027251 -10600.5 
182 3.63e-05 -0.0642206 0.00829385 103.227 100.976 0.0528393 -10604.7 
183 3.65e-05 -0.267315 0.00175567 103.133 100.974 0.0432849 -10597.7 
184 3.67e-05 -0.232502 0.00517566 103.145 100.966 0.0424319 -10598.2 
185 3.69e-05 -0.127998 -0.00559872 102.999 100.975 0.0614941 -10599.3 
186 3.71e-05 0.0959762 0.0125639 102.869 100.976 0.0323906 -10587.6 
187 3.73e-05 0.276175 -0.0203897 102.953 100.964 0.0563832 -10592.1 
188 3.75e-05 0.385617 0.0366225 103.037 100.97 0.0468411 -10593.7 
189 3.77e-05 0.539125 -0.0198881 103.25 100.961 0.048131 -10591.3 
190 3.79e-05 0.475707 -0.00163286 103.718 100.98 0.0399441 -10590.7 
191 3.81e-05 0.390285 0.0178722 103.456 100.974 0.0424547 -10589.9 
192 3.83e-05 0.349427 -0.0607669 103.499 100.987 0.0601806 -10595.1 
193 3.85e-05 0.336728 0.0124543 103.312 100.958 0.0419064 -10583.5 
194 3.87e-05 0.0816132 0.0298599 103.182 100.982 0.059994 -10586.4 
195 3.89e-05 -0.076878 -0.00452465 103.193 100.956 0.0430604 -10581.3 
196 3.91e-05 0.0371255 -0.040047 103.306 101.009 0.0470305 -10585.1 
197 3.93e-05 0.0126818 0.037745 103.54 100.955 0.0494511 -10581.5 
198 3.95e-05 0.226111 0.000688567 103.565 100.964 0.040106 -10575.5 
199 3.97e-05 0.0698463 -0.00144011 103.379 100.986 0.05679 -10567.6 
200 3.99e-05 0.125787 -0.00718448 103.668 100.96 0.0484048 -10575 
