ITEM: TIMESTEP
1000000
ITEM: NUMBER OF CELLS
125
ITEM: BOX BOUNDS pp ss pp
0 0.0001
0 1e-05
0 0.0001
ITEM: CELLS yc f_rho[1] f_rho[2] f_state[1] f_state[2] 
4e-08 119.553 2.53859e+25 299.547 104988 
1.2e-07 119.493 2.53989e+25 300.155 105255 
2e-07 119.52 2.54465e+25 299.525 105231 
2.8e-07 119.536 2.55217e+25 298.31 105114 
3.6e-07 119.602 2.55041e+25 299.078 105312 
4.4e-07 119.625 2.54883e+25 298.789 105145 
5.2e-07 119.622 2.53877e+25 299.561 105001 
6e-07 119.567 2.53861e+25 299.449 104955 
6.8e-07 119.584 2.54466e+25 298.946 105028 
7.6e-07 119.555 2.54362e+25 298.931 104980 
8.4e-07 119.539 2.54045e+25 299.399 105013 
9.2e-07 119.517 2.53617e+25 300.086 105077 
1e-06 119.578 2.54053e+25 299.918 105199 
1.08e-06 119.546 2.54607e+25 299.419 105253 
1.16e-06 119.638 2.54864e+25 298.937 105189 
1.24e-06 119.565 2.54687e+25 299.171 105198 
1.32e-06 119.574 2.5433e+25 299.792 105269 
1.4e-06 119.547 2.55253e+25 298.544 105211 
1.48e-06 119.613 2.55239e+25 298.647 105242 
1.56e-06 119.653 2.54291e+25 299.549 105168 
1.64e-06 119.592 2.53864e+25 299.542 104988 
1.72e-06 119.558 2.5427e+25 299.299 105071 
1.8e-06 119.614 2.54523e+25 299.025 105079 
1.88e-06 119.621 2.539e+25 299.991 105161 
1.96e-06 119.615 2.53828e+25 300.101 105170 
2.04e-06 119.502 2.53323e+25 300.307 105032 
2.12e-06 119.623 2.53677e+25 300.557 105267 
2.2e-06 119.529 2.53912e+25 300.012 105173 
2.28e-06 119.553 2.53848e+25 299.987 105138 
2.36e-06 119.603 2.53999e+25 299.582 105059 
2.44e-06 119.554 2.53685e+25 299.501 104900 
2.52e-06 119.595 2.54393e+25 299.265 105110 
2.6e-06 119.55 2.53936e+25 299.475 104995 
2.68e-06 119.575 2.53842e+25 300.051 105158 
2.76e-06 119.479 2.53889e+25 299.842 105104 
2.84e-06 119.581 2.5573e+25 298.911 105538 
2.92e-06 119.613 2.55646e+25 298.606 105395 
3e-06 119.657 2.55497e+25 297.966 105108 
3.08e-06 119.526 2.54438e+25 298.791 104962 
3.16e-06 119.651 2.56162e+25 297.971 105383 
3.24e-06 119.646 2.55991e+25 297.903 105289 
3.32e-06 119.576 2.56447e+25 297.56 105355 
3.4e-06 119.613 2.55612e+25 297.432 104967 
3.48e-06 119.539 2.56411e+25 297.655 105374 
3.56e-06 119.666 2.56717e+25 297.293 105371 
3.64e-06 119.635 2.56382e+25 297.665 105366 
3.72e-06 119.617 2.56263e+25 297.473 105249 
3.8e-06 119.644 2.56305e+25 297.24 105184 
3.88e-06 119.677 2.56773e+25 296.751 105202 
3.96e-06 119.695 2.57334e+25 297.027 105530 
4.04e-06 119.577 2.56032e+25 297.674 105225 
4.12e-06 119.574 2.5597e+25 297.589 105169 
4.2e-06 119.634 2.56509e+25 296.843 105127 
4.28e-06 119.68 2.56595e+25 297.13 105264 
4.36e-06 119.67 2.56651e+25 296.799 105169 
4.44e-06 119.697 2.5647e+25 297.348 105289 
4.52e-06 119.704 2.56816e+25 297.106 105346 
4.6e-06 119.558 2.56336e+25 297.694 105357 
4.68e-06 119.623 2.56468e+25 297.695 105411 
4.76e-06 119.643 2.56063e+25 298.037 105366 
4.84e-06 119.61 2.55475e+25 298.054 105130 
4.92e-06 119.612 2.55188e+25 297.974 104984 
5e-06 119.632 2.56416e+25 297.43 105296 
5.08e-06 119.619 2.5522e+25 297.976 104998 
5.16e-06 119.575 2.55431e+25 298.277 105191 
5.24e-06 119.592 2.56088e+25 297.511 105190 
5.32e-06 119.595 2.55569e+25 297.852 105098 
5.4e-06 119.592 2.55169e+25 297.843 104930 
5.48e-06 119.568 2.55605e+25 297.925 105138 
5.56e-06 119.598 2.5567e+25 298.243 105277 
5.64e-06 119.729 2.56313e+25 297.686 105344 
5.72e-06 119.575 2.55361e+25 298.189 105131 
5.8e-06 119.552 2.55139e+25 298.325 105087 
5.88e-06 119.687 2.55505e+25 297.657 105002 
5.96e-06 119.672 2.55707e+25 297.581 105059 
6.04e-06 119.651 2.56041e+25 297.762 105260 
6.12e-06 119.579 2.55436e+25 298.348 105218 
6.2e-06 119.703 2.56236e+25 297.595 105281 
6.28e-06 119.6 2.5565e+25 298.034 105195 
6.36e-06 119.582 2.55123e+25 298.725 105222 
6.44e-06 119.609 2.55065e+25 298.569 105143 
6.52e-06 119.696 2.56127e+25 298.55 105574 
6.6e-06 119.676 2.55914e+25 298.02 105299 
6.68e-06 119.652 2.55359e+25 298.241 105148 
6.76e-06 119.594 2.55293e+25 298.552 105230 
6.84e-06 119.696 2.55752e+25 297.989 105221 
6.92e-06 119.67 2.55643e+25 298.624 105400 
7e-06 119.638 2.55075e+25 298.542 105137 
7.08e-06 119.621 2.5526e+25 298.38 105156 
7.16e-06 119.585 2.54506e+25 298.732 104970 
7.24e-06 119.637 2.55424e+25 298.499 105266 
7.32e-06 119.572 2.55023e+25 298.639 105150 
7.4e-06 119.547 2.54618e+25 299.045 105125 
7.48e-06 119.497 2.53804e+25 299.525 104958 
7.56e-06 119.642 2.54258e+25 299.569 105161 
7.64e-06 119.444 2.53254e+25 300.649 105123 
7.72e-06 119.582 2.53377e+25 300.844 105243 
7.8e-06 119.612 2.53757e+25 300.242 105190 
7.88e-06 119.541 2.53449e+25 300.591 105184 
7.96e-06 119.499 2.53299e+25 300.718 105166 
8.04e-06 119.496 2.52835e+25 300.743 104982 
8.12e-06 119.493 2.54015e+25 300.414 105357 
8.2e-06 119.498 2.53692e+25 299.956 105062 
8.28e-06 119.536 2.53152e+25 300.568 105053 
8.36e-06 119.651 2.54083e+25 300.062 105261 
8.44e-06 119.548 2.53424e+25 300.346 105088 
8.52e-06 119.525 2.53804e+25 299.877 105081 
8.6e-06 119.58 2.53681e+25 299.905 105040 
8.68e-06 119.538 2.5347e+25 300.738 105244 
8.76e-06 119.5 2.5268e+25 300.901 104973 
8.84e-06 119.555 2.53642e+25 300.251 105145 
8.92e-06 119.548 2.53718e+25 300.551 105282 
9e-06 119.469 2.53041e+25 300.796 105086 
9.08e-06 119.494 2.52937e+25 300.656 104995 
9.16e-06 119.471 2.52904e+25 301.108 105138 
9.24e-06 119.51 2.5409e+25 300.559 105439 
9.32e-06 119.542 2.53334e+25 300.495 105103 
9.4e-06 119.624 2.5328e+25 300.94 105236 
9.48e-06 119.527 2.5389e+25 300.651 105388 
9.56e-06 119.621 2.53537e+25 300.934 105340 
9.64e-06 119.485 2.53032e+25 300.884 105113 
9.72e-06 119.506 2.52718e+25 301.918 105343 
9.8e-06 119.473 2.52015e+25 302.046 105095 
9.88e-06 119.475 2.52855e+25 301.593 105287 
9.96e-06 119.557 2.5254e+25 300.508 104778 
