ITEM: TIMESTEP
500000
ITEM: NUMBER OF CELLS
125
ITEM: BOX BOUNDS pp ss pp
0 0.0001
0 1e-05
0 0.0001
ITEM: CELLS yc f_rho[1] f_rho[2] f_state[1] f_state[2] 
4e-08 0 0 0 0 
1.2e-07 0 0 0 0 
2e-07 0 0 0 0 
2.8e-07 0 0 0 0 
3.6e-07 0 0 0 0 
4.4e-07 0 0 0 0 
5.2e-07 0 0 0 0 
6e-07 0 0 0 0 
6.8e-07 0 0 0 0 
7.6e-07 0 0 0 0 
8.4e-07 0 0 0 0 
9.2e-07 0 0 0 0 
1e-06 0 0 0 0 
1.08e-06 0 0 0 0 
1.16e-06 0 0 0 0 
1.24e-06 0 0 0 0 
1.32e-06 0 0 0 0 
1.4e-06 0 0 0 0 
1.48e-06 0 0 0 0 
1.56e-06 0 0 0 0 
1.64e-06 0 0 0 0 
1.72e-06 0 0 0 0 
1.8e-06 0 0 0 0 
1.88e-06 0 0 0 0 
1.96e-06 0 0 0 0 
2.04e-06 0 0 0 0 
2.12e-06 0 0 0 0 
2.2e-06 0 0 0 0 
2.28e-06 0 0 0 0 
2.36e-06 0 0 0 0 
2.44e-06 0 0 0 0 
2.52e-06 0 0 0 0 
2.6e-06 0 0 0 0 
2.68e-06 0 0 0 0 
2.76e-06 0 0 0 0 
2.84e-06 0 0 0 0 
2.92e-06 0 0 0 0 
3e-06 0 0 0 0 
3.08e-06 0 0 0 0 
3.16e-06 0 0 0 0 
3.24e-06 0 0 0 0 
3.32e-06 0 0 0 0 
3.4e-06 0 0 0 0 
3.48e-06 0 0 0 0 
3.56e-06 0 0 0 0 
3.64e-06 0 0 0 0 
3.72e-06 0 0 0 0 
3.8e-06 0 0 0 0 
3.88e-06 0 0 0 0 
3.96e-06 0 0 0 0 
4.04e-06 0 0 0 0 
4.12e-06 0 0 0 0 
4.2e-06 0 0 0 0 
4.28e-06 0 0 0 0 
4.36e-06 0 0 0 0 
4.44e-06 0 0 0 0 
4.52e-06 0 0 0 0 
4.6e-06 0 0 0 0 
4.68e-06 0 0 0 0 
4.76e-06 0 0 0 0 
4.84e-06 0 0 0 0 
4.92e-06 0 0 0 0 
5e-06 0 0 0 0 
5.08e-06 0 0 0 0 
5.16e-06 0 0 0 0 
5.24e-06 0 0 0 0 
5.32e-06 0 0 0 0 
5.4e-06 0 0 0 0 
5.48e-06 0 0 0 0 
5.56e-06 0 0 0 0 
5.64e-06 0 0 0 0 
5.72e-06 0 0 0 0 
5.8e-06 0 0 0 0 
5.88e-06 0 0 0 0 
5.96e-06 0 0 0 0 
6.04e-06 0 0 0 0 
6.12e-06 0 0 0 0 
6.2e-06 0 0 0 0 
6.28e-06 0 0 0 0 
6.36e-06 0 0 0 0 
6.44e-06 0 0 0 0 
6.52e-06 0 0 0 0 
6.6e-06 0 0 0 0 
6.68e-06 0 0 0 0 
6.76e-06 0 0 0 0 
6.84e-06 0 0 0 0 
6.92e-06 0 0 0 0 
7e-06 0 0 0 0 
7.08e-06 0 0 0 0 
7.16e-06 0 0 0 0 
7.24e-06 0 0 0 0 
7.32e-06 0 0 0 0 
7.4e-06 0 0 0 0 
7.48e-06 0 0 0 0 
7.56e-06 0 0 0 0 
7.64e-06 0 0 0 0 
7.72e-06 0 0 0 0 
7.8e-06 0 0 0 0 
7.88e-06 0 0 0 0 
7.96e-06 0 0 0 0 
8.04e-06 0 0 0 0 
8.12e-06 0 0 0 0 
8.2e-06 0 0 0 0 
8.28e-06 0 0 0 0 
8.36e-06 0 0 0 0 
8.44e-06 0 0 0 0 
8.52e-06 0 0 0 0 
8.6e-06 0 0 0 0 
8.68e-06 0 0 0 0 
8.76e-06 0 0 0 0 
8.84e-06 0 0 0 0 
8.92e-06 0 0 0 0 
9e-06 0 0 0 0 
9.08e-06 0 0 0 0 
9.16e-06 0 0 0 0 
9.24e-06 0 0 0 0 
9.32e-06 0 0 0 0 
9.4e-06 0 0 0 0 
9.48e-06 0 0 0 0 
9.56e-06 0 0 0 0 
9.64e-06 0 0 0 0 
9.72e-06 0 0 0 0 
9.8e-06 0 0 0 0 
9.88e-06 0 0 0 0 
9.96e-06 0 0 0 0 
