ITEM: TIMESTEP
1000000
ITEM: NUMBER OF CELLS
125
ITEM: BOX BOUNDS pp ss pp
0 0.0001
0 1e-05
0 0.0001
ITEM: CELLS yc f_rho[1] f_rho[2] f_state[1] f_state[2] 
4e-08 228.18 2.5057e+25 286.732 99194.7 
1.2e-07 228.256 2.46245e+25 287.131 97618.2 
2e-07 228.204 2.46464e+25 286.394 97454 
2.8e-07 228.055 2.4607e+25 287.352 97623.9 
3.6e-07 228.155 2.44513e+25 287.539 97069.5 
4.4e-07 227.984 2.45453e+25 287.79 97527.4 
5.2e-07 228.051 2.44997e+25 287.772 97340.3 
6e-07 228.082 2.45028e+25 287.764 97350 
6.8e-07 228.112 2.44935e+25 287.216 97127.6 
7.6e-07 228.047 2.44636e+25 287.788 97202.1 
8.4e-07 228.079 2.4506e+25 287.525 97282.1 
9.2e-07 228.03 2.45198e+25 287.365 97282.4 
1e-06 228.305 2.4621e+25 287.438 97708.6 
1.08e-06 228.082 2.45009e+25 287.503 97253.9 
1.16e-06 228.058 2.44278e+25 288.621 97340.8 
1.24e-06 227.963 2.44556e+25 288.221 97316.9 
1.32e-06 227.94 2.44269e+25 288.444 97277.4 
1.4e-06 227.952 2.44327e+25 288.249 97235.2 
1.48e-06 228.098 2.45103e+25 287.893 97423.6 
1.56e-06 227.961 2.43298e+25 288.524 96917.8 
1.64e-06 227.817 2.43821e+25 288.712 97189.5 
1.72e-06 228.285 2.44669e+25 288.628 97499.2 
1.8e-06 227.929 2.4307e+25 289.357 97106.5 
1.88e-06 227.922 2.43373e+25 288.945 97089.2 
1.96e-06 227.961 2.43862e+25 288.193 97031.1 
2.04e-06 228.332 2.45123e+25 287.85 97416.8 
2.12e-06 228.075 2.44647e+25 287.89 97241.1 
2.2e-06 228.09 2.44987e+25 288.192 97478.1 
2.28e-06 227.904 2.44334e+25 288.037 97166 
2.36e-06 228.098 2.44778e+25 288.358 97451.2 
2.44e-06 228.287 2.45778e+25 286.839 97334.1 
2.52e-06 227.94 2.44752e+25 287.346 97098.8 
2.6e-06 227.954 2.45087e+25 287.168 97171.6 
2.68e-06 228.263 2.46039e+25 286.907 97460.6 
2.76e-06 228.012 2.45542e+25 287.01 97298.4 
2.84e-06 228.029 2.44666e+25 287.124 96990.1 
2.92e-06 228.024 2.44677e+25 287.437 97099.7 
3e-06 228.354 2.45732e+25 287.572 97564.5 
3.08e-06 227.913 2.45004e+25 286.88 97041.1 
3.16e-06 228.038 2.43891e+25 287.79 96906.9 
3.24e-06 228.326 2.45507e+25 287.255 97367.9 
3.32e-06 228.185 2.4534e+25 287.327 97325.7 
3.4e-06 228.255 2.46904e+25 286.344 97611.1 
3.48e-06 228.139 2.4586e+25 287.038 97434.1 
3.56e-06 228.146 2.46496e+25 286.145 97382.1 
3.64e-06 228.274 2.46217e+25 286.653 97444.6 
3.72e-06 228.369 2.45742e+25 286.786 97301.9 
3.8e-06 228.108 2.46155e+25 286.686 97431.3 
3.88e-06 228.187 2.46479e+25 286.738 97577.1 
3.96e-06 228.093 2.45691e+25 286.703 97253.6 
4.04e-06 227.787 2.45663e+25 286.5 97173.5 
4.12e-06 228.086 2.46527e+25 286.499 97514.7 
4.2e-06 227.965 2.45703e+25 286.205 97089 
4.28e-06 228.286 2.46765e+25 286.42 97581.9 
4.36e-06 228.196 2.45642e+25 286.973 97325.7 
4.44e-06 228.11 2.45478e+25 286.649 97151 
4.52e-06 228.011 2.45838e+25 286.812 97348.6 
4.6e-06 227.953 2.44698e+25 287.415 97101 
4.68e-06 228.21 2.453e+25 286.973 97189.9 
4.76e-06 228.182 2.45279e+25 287.145 97240.1 
4.84e-06 228.085 2.45139e+25 286.721 97041 
4.92e-06 228.198 2.46494e+25 286.468 97491.5 
5e-06 228.268 2.46937e+25 286.322 97616.8 
5.08e-06 228.131 2.45871e+25 286.524 97264.1 
5.16e-06 228.042 2.46424e+25 286.625 97516.9 
5.24e-06 228.145 2.45745e+25 287.304 97478.4 
5.32e-06 228.017 2.45717e+25 287.189 97428.5 
5.4e-06 228.239 2.46036e+25 286.965 97479.1 
5.48e-06 227.99 2.45431e+25 286.682 97143.4 
5.56e-06 227.98 2.45133e+25 287.116 97172.4 
5.64e-06 228.114 2.4459e+25 287.256 97004.3 
5.72e-06 228.107 2.45618e+25 287.182 97387.2 
5.8e-06 228.251 2.45692e+25 286.826 97295.5 
5.88e-06 228.169 2.45973e+25 286.507 97298.3 
5.96e-06 228.083 2.46827e+25 286.479 97627 
6.04e-06 227.99 2.44596e+25 287.569 97112.5 
6.12e-06 228.351 2.46483e+25 286.558 97517.7 
6.2e-06 227.987 2.46087e+25 286.406 97309.3 
6.28e-06 228.181 2.46537e+25 286.005 97350.8 
6.36e-06 228.122 2.45893e+25 286.755 97351.2 
6.44e-06 228.128 2.45774e+25 286.761 97305.9 
6.52e-06 228.076 2.45763e+25 286.913 97353.1 
6.6e-06 227.951 2.45365e+25 287.313 97331.1 
6.68e-06 228.01 2.45169e+25 286.969 97136.7 
6.76e-06 227.981 2.45177e+25 286.86 97103.1 
6.84e-06 227.969 2.45748e+25 286.868 97331.9 
6.92e-06 228.185 2.45506e+25 286.719 97185.6 
7e-06 228.141 2.4463e+25 287.588 97132.4 
7.08e-06 227.955 2.44662e+25 287.063 96967.8 
7.16e-06 228.212 2.46306e+25 286.876 97555.7 
7.24e-06 228.028 2.45516e+25 286.806 97219.2 
7.32e-06 227.937 2.45947e+25 286.769 97377.2 
7.4e-06 228.185 2.46276e+25 286.591 97446.9 
7.48e-06 228.242 2.46054e+25 286.73 97406.2 
7.56e-06 228.208 2.46675e+25 286.357 97524.8 
7.64e-06 228.176 2.4612e+25 286.275 97277.7 
7.72e-06 228.106 2.46732e+25 285.999 97425.5 
7.8e-06 228.079 2.46621e+25 285.895 97346.5 
7.88e-06 228.235 2.46497e+25 286.001 97333.5 
7.96e-06 228.077 2.45689e+25 286.283 97110.1 
8.04e-06 228.039 2.46667e+25 286.154 97452.7 
8.12e-06 228.085 2.47283e+25 285.744 97556.1 
8.2e-06 228.291 2.47209e+25 285.675 97503.4 
8.28e-06 228.057 2.47345e+25 285.162 97381.8 
8.36e-06 228.131 2.46903e+25 285.312 97258.6 
8.44e-06 228.238 2.47772e+25 285.511 97669.3 
8.52e-06 228.066 2.48317e+25 285.174 97768.9 
8.6e-06 228.128 2.47483e+25 285.549 97568.4 
8.68e-06 228.134 2.48361e+25 285.263 97816.3 
8.76e-06 228.321 2.47713e+25 284.827 97412.3 
8.84e-06 228.148 2.47001e+25 285.332 97304.6 
8.92e-06 228.36 2.48174e+25 284.763 97571.5 
9e-06 228.194 2.46614e+25 285.653 97261.5 
9.08e-06 228.292 2.46897e+25 285.494 97318.8 
9.16e-06 228.352 2.48134e+25 284.776 97560.2 
9.24e-06 228.433 2.47565e+25 285.349 97532.5 
9.32e-06 228.231 2.48131e+25 284.79 97563.7 
9.4e-06 228.02 2.47806e+25 284.963 97495.3 
9.48e-06 228.268 2.48837e+25 284.092 97601.5 
9.56e-06 228.346 2.48791e+25 284.581 97751.4 
9.64e-06 228.123 2.48714e+25 284.136 97568.5 
9.72e-06 228.291 2.49406e+25 283.668 97678.9 
9.8e-06 228.411 2.50108e+25 283.728 97974.4 
9.88e-06 228.273 2.51848e+25 283.728 98656 
9.96e-06 229.148 2.64589e+25 281.268 102749 
