ITEM: TIMESTEP
1000000
ITEM: NUMBER OF CELLS
125
ITEM: BOX BOUNDS pp ss pp
0 0.0001
0 1e-05
0 0.0001
ITEM: CELLS yc f_rho[1] f_rho[2] f_state[1] f_state[2] 
4e-08 110.805 2.43247e+25 308.794 103705 
1.2e-07 111.046 2.44806e+25 308.026 104110 
2e-07 111.421 2.46957e+25 306.839 104620 
2.8e-07 111.176 2.46883e+25 306.137 104350 
3.6e-07 111.371 2.4645e+25 306.442 104270 
4.4e-07 111.244 2.46683e+25 306.492 104386 
5.2e-07 111.441 2.46844e+25 306.255 104373 
6e-07 111.263 2.4606e+25 306.431 104102 
6.8e-07 111.181 2.46381e+25 307.266 104521 
7.6e-07 111.331 2.46459e+25 306.948 104446 
8.4e-07 111.245 2.45818e+25 307.311 104298 
9.2e-07 111.116 2.45684e+25 307.205 104205 
1e-06 111.364 2.4624e+25 306.962 104358 
1.08e-06 111.331 2.46766e+25 307.111 104632 
1.16e-06 111.357 2.47825e+25 306.163 104757 
1.24e-06 111.382 2.47178e+25 306.887 104730 
1.32e-06 111.226 2.46353e+25 306.815 104356 
1.4e-06 111.459 2.4724e+25 307.367 104920 
1.48e-06 111.264 2.45255e+25 307.884 104253 
1.56e-06 111.447 2.46819e+25 307.701 104856 
1.64e-06 111.391 2.47031e+25 306.852 104656 
1.72e-06 111.51 2.47774e+25 307.083 105050 
1.8e-06 111.314 2.45902e+25 307.349 104346 
1.88e-06 111.342 2.46807e+25 306.922 104585 
1.96e-06 111.239 2.46238e+25 306.777 104294 
2.04e-06 111.387 2.47096e+25 307.016 104739 
2.12e-06 111.309 2.46339e+25 306.826 104354 
2.2e-06 111.347 2.47277e+25 306.005 104471 
2.28e-06 111.453 2.47418e+25 306.233 104608 
2.36e-06 111.323 2.46552e+25 306.663 104388 
2.44e-06 111.276 2.45982e+25 306.436 104070 
2.52e-06 111.349 2.4709e+25 305.631 104264 
2.6e-06 111.359 2.47192e+25 305.699 104331 
2.68e-06 111.468 2.47992e+25 305.396 104564 
2.76e-06 111.404 2.46749e+25 306.983 104581 
2.84e-06 111.571 2.48646e+25 305.612 104914 
2.92e-06 111.529 2.47989e+25 305.617 104639 
3e-06 111.271 2.45829e+25 306.835 104141 
3.08e-06 111.415 2.46903e+25 306.167 104368 
3.16e-06 111.289 2.46231e+25 306.124 104070 
3.24e-06 111.38 2.47046e+25 306.088 104402 
3.32e-06 111.269 2.45365e+25 306.238 103742 
3.4e-06 111.43 2.47448e+25 306.774 104806 
3.48e-06 111.297 2.46007e+25 306.839 104218 
3.56e-06 111.432 2.48092e+25 305.285 104569 
3.64e-06 111.289 2.47417e+25 305.787 104455 
3.72e-06 111.414 2.47389e+25 306.315 104624 
3.8e-06 111.303 2.46714e+25 306.014 104236 
3.88e-06 111.426 2.47193e+25 305.744 104346 
3.96e-06 111.355 2.46966e+25 306.666 104565 
4.04e-06 111.303 2.4696e+25 306.06 104356 
4.12e-06 111.463 2.47297e+25 306.764 104738 
4.2e-06 111.329 2.45623e+25 307.745 104362 
4.28e-06 111.352 2.46677e+25 306.939 104535 
4.36e-06 111.367 2.46196e+25 307.175 104412 
4.44e-06 111.278 2.47023e+25 306.25 104447 
4.52e-06 111.355 2.4649e+25 307.175 104537 
4.6e-06 111.331 2.465e+25 306.66 104365 
4.68e-06 111.273 2.46065e+25 307.036 104309 
4.76e-06 111.354 2.45677e+25 307.198 104200 
4.84e-06 111.417 2.48048e+25 306.06 104816 
4.92e-06 111.296 2.47653e+25 306.633 104845 
5e-06 111.46 2.46609e+25 306.528 104367 
5.08e-06 111.337 2.46849e+25 307.308 104734 
5.16e-06 111.357 2.46083e+25 306.985 104300 
5.24e-06 111.121 2.44339e+25 308.545 104087 
5.32e-06 111.337 2.45616e+25 307.808 104380 
5.4e-06 111.213 2.45681e+25 307.797 104404 
5.48e-06 111.276 2.45427e+25 308.377 104493 
5.56e-06 111.275 2.46533e+25 308.167 104892 
5.64e-06 111.198 2.46064e+25 308.264 104726 
5.72e-06 111.182 2.4548e+25 308.394 104521 
5.8e-06 111.343 2.45367e+25 309.024 104687 
5.88e-06 111.183 2.44953e+25 308.574 104358 
5.96e-06 111.254 2.4466e+25 309.224 104453 
6.04e-06 111.146 2.44921e+25 308.036 104162 
6.12e-06 111.196 2.45472e+25 308.121 104426 
6.2e-06 111.269 2.45996e+25 307.586 104467 
6.28e-06 111.233 2.45271e+25 308.224 104375 
6.36e-06 111.128 2.44371e+25 309.125 104296 
6.44e-06 111.353 2.45362e+25 308.385 104468 
6.52e-06 111.256 2.44632e+25 308.857 104317 
6.6e-06 111.235 2.44433e+25 308.486 104107 
6.68e-06 111.327 2.44892e+25 309.064 104498 
6.76e-06 111.326 2.45514e+25 308.315 104509 
6.84e-06 110.994 2.43766e+25 308.738 103907 
6.92e-06 111.122 2.44481e+25 308.036 103975 
7e-06 111.253 2.44834e+25 308.317 104220 
7.08e-06 111.176 2.45302e+25 307.555 104162 
7.16e-06 111.213 2.45028e+25 308.916 104505 
7.24e-06 111.167 2.44666e+25 309.082 104407 
7.32e-06 111.299 2.45585e+25 308.417 104574 
7.4e-06 111.106 2.4434e+25 308.212 103975 
7.48e-06 111.293 2.45855e+25 308.755 104804 
7.56e-06 111.095 2.44757e+25 308.418 104222 
7.64e-06 111.303 2.45782e+25 307.222 104252 
7.72e-06 111.294 2.45633e+25 307.591 104314 
7.8e-06 111.265 2.45907e+25 307.6 104434 
7.88e-06 111.169 2.45025e+25 308.39 104327 
7.96e-06 111.215 2.4517e+25 308.658 104479 
8.04e-06 111.063 2.4436e+25 308.557 104099 
8.12e-06 111.246 2.45627e+25 308.43 104596 
8.2e-06 111.177 2.44942e+25 308.546 104344 
8.28e-06 111.233 2.45281e+25 308.08 104330 
8.36e-06 111.321 2.46145e+25 308.042 104685 
8.44e-06 111.299 2.45628e+25 307.202 104180 
8.52e-06 111.292 2.46086e+25 307.624 104518 
8.6e-06 111.431 2.46209e+25 307.459 104514 
8.68e-06 111.247 2.45774e+25 308.148 104563 
8.76e-06 111.266 2.45912e+25 307.849 104520 
8.84e-06 111.353 2.45842e+25 307.582 104400 
8.92e-06 111.423 2.46822e+25 307.715 104861 
9e-06 111.337 2.45745e+25 306.972 104152 
9.08e-06 111.483 2.46872e+25 307.49 104806 
9.16e-06 111.299 2.45984e+25 307.619 104473 
9.24e-06 111.328 2.46619e+25 307.412 104672 
9.32e-06 111.44 2.47048e+25 306.111 104411 
9.4e-06 111.351 2.46907e+25 306.239 104394 
9.48e-06 111.325 2.45865e+25 307.659 104436 
9.56e-06 111.263 2.46738e+25 306.311 104348 
9.64e-06 111.425 2.47027e+25 305.797 104294 
9.72e-06 111.338 2.47158e+25 305.841 104365 
9.8e-06 111.338 2.46606e+25 306.573 104381 
9.88e-06 111.306 2.46304e+25 307.212 104471 
9.96e-06 110.873 2.44154e+25 309.559 104349 
