ITEM: TIMESTEP
1000000
ITEM: NUMBER OF CELLS
125
ITEM: BOX BOUNDS pp ss pp
0 0.0001
0 1e-05
0 0.0001
ITEM: CELLS yc f_rho[1] f_rho[2] f_state[1] f_state[2] 
4e-08 126.847 2.46079e+25 301.96 102590 
1.2e-07 126.8 2.45803e+25 301.727 102396 
2e-07 126.801 2.45398e+25 302.225 102396 
2.8e-07 126.814 2.45224e+25 302.673 102475 
3.6e-07 126.876 2.44828e+25 302.48 102244 
4.4e-07 126.7 2.44051e+25 303.555 102282 
5.2e-07 126.881 2.45252e+25 303.251 102683 
6e-07 126.705 2.43693e+25 304.262 102370 
6.8e-07 126.642 2.43224e+25 305.437 102568 
7.6e-07 126.709 2.43924e+25 304.963 102704 
8.4e-07 126.771 2.442e+25 304.595 102695 
9.2e-07 126.776 2.43965e+25 304.45 102548 
1e-06 126.613 2.43203e+25 304.791 102342 
1.08e-06 126.842 2.44563e+25 304.143 102695 
1.16e-06 126.73 2.43943e+25 304.436 102534 
1.24e-06 126.827 2.44047e+25 304.034 102442 
1.32e-06 126.668 2.43944e+25 303.659 102273 
1.4e-06 126.867 2.45251e+25 303.342 102713 
1.48e-06 126.857 2.45277e+25 303.579 102804 
1.56e-06 126.823 2.44931e+25 303.22 102538 
1.64e-06 126.964 2.4536e+25 303.194 102709 
1.72e-06 126.732 2.44116e+25 303.634 102336 
1.8e-06 126.765 2.44556e+25 303.098 102340 
1.88e-06 126.914 2.4486e+25 303.451 102586 
1.96e-06 126.755 2.44456e+25 303.667 102490 
2.04e-06 126.886 2.46099e+25 302.532 102793 
2.12e-06 126.878 2.45376e+25 302.631 102525 
2.2e-06 126.866 2.45686e+25 302.369 102565 
2.28e-06 126.697 2.44485e+25 303.754 102532 
2.36e-06 126.751 2.43975e+25 303.733 102310 
2.44e-06 126.852 2.45579e+25 302.793 102665 
2.52e-06 126.923 2.45682e+25 302.475 102600 
2.6e-06 126.794 2.45592e+25 302.632 102615 
2.68e-06 126.991 2.46004e+25 302.148 102623 
2.76e-06 126.88 2.45859e+25 302.635 102728 
2.84e-06 126.826 2.45686e+25 302.76 102698 
2.92e-06 127.035 2.46664e+25 302.448 103001 
3e-06 126.791 2.44955e+25 302.323 102245 
3.08e-06 126.709 2.44226e+25 303.932 102483 
3.16e-06 126.717 2.44243e+25 303.677 102404 
3.24e-06 126.896 2.45576e+25 302.724 102640 
3.32e-06 126.839 2.45131e+25 303.26 102635 
3.4e-06 126.837 2.45379e+25 302.881 102611 
3.48e-06 126.891 2.45615e+25 302.62 102621 
3.56e-06 126.855 2.45522e+25 302.76 102629 
3.64e-06 126.777 2.44933e+25 303.07 102488 
3.72e-06 126.759 2.45348e+25 302.48 102462 
3.8e-06 126.934 2.45859e+25 302.01 102515 
3.88e-06 126.82 2.45164e+25 302.665 102448 
3.96e-06 126.825 2.45373e+25 302.752 102564 
4.04e-06 127.015 2.46837e+25 301.98 102913 
4.12e-06 126.822 2.44981e+25 303.031 102495 
4.2e-06 126.844 2.45189e+25 302.572 102427 
4.28e-06 126.851 2.44798e+25 302.558 102259 
4.36e-06 127.127 2.47368e+25 300.853 102750 
4.44e-06 126.832 2.46152e+25 301.897 102599 
4.52e-06 126.751 2.45268e+25 302.327 102376 
4.6e-06 126.872 2.45803e+25 301.801 102422 
4.68e-06 126.906 2.46859e+25 301.379 102718 
4.76e-06 127.013 2.47142e+25 301.653 102929 
4.84e-06 126.911 2.46517e+25 301.455 102601 
4.92e-06 126.964 2.46831e+25 301.734 102827 
5e-06 127.013 2.46557e+25 301.896 102768 
5.08e-06 126.89 2.47023e+25 301.272 102749 
5.16e-06 127.077 2.48216e+25 300.099 102844 
5.24e-06 127.121 2.47565e+25 300.441 102691 
5.32e-06 126.87 2.47001e+25 300.602 102512 
5.4e-06 126.962 2.47718e+25 299.926 102578 
5.48e-06 126.899 2.4667e+25 300.745 102423 
5.56e-06 126.904 2.4663e+25 300.68 102384 
5.64e-06 127.097 2.47683e+25 300.296 102690 
5.72e-06 127.025 2.47014e+25 300.575 102508 
5.8e-06 127.046 2.47569e+25 300.198 102609 
5.88e-06 126.932 2.46875e+25 300.494 102423 
5.96e-06 126.884 2.47235e+25 300.248 102488 
6.04e-06 126.997 2.48018e+25 299.979 102720 
6.12e-06 127.022 2.4767e+25 300.221 102659 
6.2e-06 126.991 2.46765e+25 300.571 102403 
6.28e-06 126.906 2.46813e+25 300.672 102458 
6.36e-06 127.015 2.46483e+25 301.048 102448 
6.44e-06 126.862 2.46472e+25 301.523 102605 
6.52e-06 127.114 2.47602e+25 300.498 102726 
6.6e-06 126.814 2.46903e+25 301.254 102694 
6.68e-06 126.907 2.46712e+25 300.995 102526 
6.76e-06 126.878 2.46566e+25 300.916 102438 
6.84e-06 127.101 2.47412e+25 300.624 102690 
6.92e-06 126.936 2.47176e+25 300.993 102718 
7e-06 126.891 2.46066e+25 301.643 102477 
7.08e-06 126.908 2.46646e+25 301.348 102618 
7.16e-06 126.823 2.46424e+25 300.834 102351 
7.24e-06 126.872 2.45906e+25 301.857 102483 
7.32e-06 126.893 2.4685e+25 301.175 102644 
7.4e-06 126.999 2.46158e+25 301.267 102388 
7.48e-06 126.998 2.46696e+25 301.133 102566 
7.56e-06 126.832 2.46396e+25 301.059 102416 
7.64e-06 126.856 2.46834e+25 301.203 102647 
7.72e-06 126.876 2.46339e+25 301.526 102551 
7.8e-06 127.018 2.47333e+25 300.115 102483 
7.88e-06 126.955 2.46947e+25 300.932 102602 
7.96e-06 126.925 2.47271e+25 301.173 102819 
8.04e-06 126.868 2.46461e+25 300.357 102204 
8.12e-06 126.966 2.46066e+25 301.523 102437 
8.2e-06 126.824 2.4619e+25 301.787 102578 
8.28e-06 127.017 2.47555e+25 300.449 102689 
8.36e-06 127.018 2.47031e+25 300.586 102519 
8.44e-06 127.023 2.47344e+25 300.38 102578 
8.52e-06 126.937 2.46524e+25 301.602 102654 
8.6e-06 126.891 2.46636e+25 301.255 102583 
8.68e-06 126.997 2.48257e+25 300.52 103005 
8.76e-06 126.943 2.47044e+25 300.338 102440 
8.84e-06 127.022 2.47667e+25 299.616 102451 
8.92e-06 127.059 2.48368e+25 299.108 102567 
9e-06 127.082 2.48225e+25 299.165 102527 
9.08e-06 126.93 2.47372e+25 299.534 102301 
9.16e-06 126.89 2.47032e+25 299.879 102278 
9.24e-06 127.068 2.47798e+25 299.21 102366 
9.32e-06 126.96 2.47724e+25 299.827 102547 
9.4e-06 127.008 2.47408e+25 299.689 102369 
9.48e-06 126.95 2.47516e+25 300.328 102632 
9.56e-06 127 2.47431e+25 300.586 102685 
9.64e-06 127.013 2.47362e+25 300.403 102594 
9.72e-06 126.956 2.4749e+25 300.243 102592 
9.8e-06 127.007 2.47327e+25 299.946 102423 
9.88e-06 127.012 2.47758e+25 299.831 102562 
9.96e-06 126.836 2.46754e+25 300.465 102362 
