ITEM: TIMESTEP
1000000
ITEM: NUMBER OF CELLS
125
ITEM: BOX BOUNDS pp ss pp
0 0.0001
0 1e-05
0 0.0001
ITEM: CELLS yc f_rho[1] f_rho[2] f_state[1] f_state[2] 
4e-08 108.074 4.93937e+24 283.467 19331.1 
1.2e-07 109.055 4.42696e+24 294.319 17989 
2e-07 109.148 4.43852e+24 294.048 18019.4 
2.8e-07 109.161 4.41206e+24 294.805 17958 
3.6e-07 109.075 4.39808e+24 295.375 17935.8 
4.4e-07 109.217 4.409e+24 294.391 17920.4 
5.2e-07 109.136 4.38962e+24 294.662 17858 
6e-07 109.155 4.39276e+24 295.106 17897.8 
6.8e-07 109.103 4.3871e+24 295.496 17898.3 
7.6e-07 109.172 4.35202e+24 296.198 17797.4 
8.4e-07 109.205 4.36813e+24 296.146 17860.1 
9.2e-07 109.131 4.37389e+24 295.586 17849.9 
1e-06 109.132 4.38026e+24 295.289 17857.9 
1.08e-06 109.102 4.3657e+24 296.205 17853.7 
1.16e-06 109.13 4.36589e+24 295.678 17822.8 
1.24e-06 109.175 4.34587e+24 296.609 17796.9 
1.32e-06 109.143 4.34967e+24 295.947 17772.7 
1.4e-06 109.19 4.34742e+24 296.817 17815.7 
1.48e-06 109.197 4.35192e+24 296.959 17842.7 
1.56e-06 109.153 4.35534e+24 296.626 17836.7 
1.64e-06 109.135 4.33119e+24 297.436 17786.2 
1.72e-06 109.214 4.3547e+24 297.175 17867.1 
1.8e-06 109.121 4.3468e+24 297.334 17844.2 
1.88e-06 109.145 4.34585e+24 297.209 17832.8 
1.96e-06 109.149 4.34305e+24 298.029 17870.5 
2.04e-06 109.135 4.3349e+24 298.14 17843.6 
2.12e-06 109.14 4.33295e+24 298.44 17853.5 
2.2e-06 109.175 4.32515e+24 298.572 17829.3 
2.28e-06 109.135 4.33131e+24 298.179 17831.2 
2.36e-06 109.206 4.33525e+24 298.284 17853.7 
2.44e-06 109.13 4.33851e+24 297.542 17822.7 
2.52e-06 109.152 4.33078e+24 298.064 17822.1 
2.6e-06 109.151 4.32627e+24 298.223 17813.1 
2.68e-06 109.182 4.32497e+24 297.791 17781.9 
2.76e-06 109.066 4.3252e+24 298.326 17814.8 
2.84e-06 109.142 4.31948e+24 299.039 17833.7 
2.92e-06 109.106 4.34584e+24 297.345 17840.9 
3e-06 109.197 4.3305e+24 298.2 17829.1 
3.08e-06 109.205 4.32209e+24 298.661 17822 
3.16e-06 109.196 4.32804e+24 298.88 17859.6 
3.24e-06 109.126 4.3428e+24 297.702 17849.9 
3.32e-06 109.157 4.32023e+24 297.976 17773.5 
3.4e-06 109.11 4.32387e+24 298.2 17801.8 
3.48e-06 109.116 4.32862e+24 298.391 17832.7 
3.56e-06 109.187 4.3368e+24 299.225 17916.4 
3.64e-06 109.103 4.32465e+24 298.66 17832.5 
3.72e-06 109.139 4.33015e+24 298.497 17845.4 
3.8e-06 109.224 4.36167e+24 296.904 17879.4 
3.88e-06 109.142 4.32679e+24 298.538 17834 
3.96e-06 109.173 4.31551e+24 299.21 17827.6 
4.04e-06 109.154 4.31899e+24 299.446 17856 
4.12e-06 109.157 4.32984e+24 298.467 17842.3 
4.2e-06 109.193 4.32521e+24 298.767 17841.1 
4.28e-06 109.103 4.34462e+24 298.066 17879.2 
4.36e-06 109.161 4.34444e+24 297.847 17865.3 
4.44e-06 109.152 4.34355e+24 298.103 17877 
4.52e-06 109.11 4.35738e+24 297.549 17900.6 
4.6e-06 109.194 4.32903e+24 298.374 17833.4 
4.68e-06 109.122 4.33393e+24 298.353 17852.3 
4.76e-06 109.198 4.32566e+24 298.13 17805 
4.84e-06 109.21 4.32925e+24 298.516 17842.9 
4.92e-06 109.148 4.34366e+24 298.19 17882.7 
5e-06 109.196 4.3431e+24 298.037 17871.2 
5.08e-06 109.171 4.31423e+24 298.811 17798.5 
5.16e-06 109.153 4.33619e+24 298.542 17873 
5.24e-06 109.187 4.31757e+24 298.963 17821.3 
5.32e-06 109.162 4.32306e+24 299.065 17850.1 
5.4e-06 109.133 4.32659e+24 298.385 17824 
5.48e-06 109.136 4.33546e+24 297.944 17834.2 
5.56e-06 109.119 4.3018e+24 299.142 17766.9 
5.64e-06 109.103 4.32346e+24 298.768 17834 
5.72e-06 109.206 4.31772e+24 299.179 17834.8 
5.8e-06 109.179 4.33421e+24 298.329 17852 
5.88e-06 109.126 4.31928e+24 298.11 17777.5 
5.96e-06 109.17 4.33271e+24 299.186 17897.2 
6.04e-06 109.123 4.30824e+24 298.621 17762.4 
6.12e-06 109.14 4.33443e+24 298.559 17866.8 
6.2e-06 109.17 4.31564e+24 299.012 17816.3 
6.28e-06 109.188 4.34217e+24 297.576 17839.7 
6.36e-06 109.151 4.35132e+24 297.239 17857.1 
6.44e-06 109.16 4.34427e+24 297.43 17839.6 
6.52e-06 109.174 4.31552e+24 299.051 17818.1 
6.6e-06 109.091 4.32989e+24 297.815 17803.5 
6.68e-06 109.117 4.33555e+24 297.336 17798.2 
6.76e-06 109.214 4.33808e+24 297.57 17822.6 
6.84e-06 109.143 4.34172e+24 297.528 17835 
6.92e-06 109.164 4.34173e+24 298.172 17873.6 
7e-06 109.189 4.33859e+24 298.536 17882.5 
7.08e-06 109.097 4.34418e+24 296.996 17813.2 
7.16e-06 109.102 4.34106e+24 298.104 17866.8 
7.24e-06 109.219 4.32705e+24 298.494 17832.4 
7.32e-06 109.116 4.33194e+24 299.35 17903.8 
7.4e-06 109.151 4.33547e+24 298.072 17841.9 
7.48e-06 109.171 4.32769e+24 298.464 17833.3 
7.56e-06 109.179 4.3515e+24 297.839 17893.9 
7.64e-06 109.142 4.36055e+24 297.512 17911.4 
7.72e-06 109.123 4.33413e+24 298.351 17853 
7.8e-06 109.164 4.32014e+24 298.239 17788.7 
7.88e-06 109.142 4.32984e+24 298.481 17843.1 
7.96e-06 109.129 4.35616e+24 296.469 17830.6 
8.04e-06 109.161 4.32157e+24 297.541 17753 
8.12e-06 109.188 4.34175e+24 297.829 17853.2 
8.2e-06 109.177 4.37533e+24 296.751 17926.1 
8.28e-06 109.14 4.35166e+24 297.353 17865.3 
8.36e-06 109.169 4.33223e+24 297.18 17775.2 
8.44e-06 109.177 4.3385e+24 297.27 17806.3 
8.52e-06 109.182 4.37384e+24 296.538 17907.2 
8.6e-06 109.15 4.33896e+24 297.649 17830.9 
8.68e-06 109.105 4.35559e+24 296.928 17855.9 
8.76e-06 109.142 4.35702e+24 297.111 17872.7 
8.84e-06 109.132 4.354e+24 296.889 17847.1 
8.92e-06 109.174 4.37008e+24 296.703 17901.7 
9e-06 109.102 4.40166e+24 295.415 17952.8 
9.08e-06 109.229 4.39389e+24 295.838 17946.8 
9.16e-06 109.152 4.39215e+24 295.731 17933.2 
9.24e-06 109.113 4.36621e+24 295.979 17842.2 
9.32e-06 109.155 4.39455e+24 295.57 17933.2 
9.4e-06 109.169 4.37988e+24 295.919 17894.5 
9.48e-06 109.151 4.39255e+24 296.042 17953.6 
9.56e-06 109.111 4.40298e+24 294.32 17891.6 
9.64e-06 109.141 4.40073e+24 294.995 17923.5 
9.72e-06 109.117 4.43708e+24 294.472 18039.5 
9.8e-06 109.1 4.43873e+24 294.082 18022.3 
9.88e-06 109.094 4.40541e+24 294.936 17938.9 
9.96e-06 108.073 4.95031e+24 282.607 19315.1 
