ITEM: TIMESTEP
1000000
ITEM: NUMBER OF CELLS
125
ITEM: BOX BOUNDS pp ss pp
0 0.0001
0 1e-05
0 0.0001
ITEM: CELLS yc f_rho[1] f_rho[2] f_state[1] f_state[2] 
4e-08 114.22 2.47833e+25 302.129 103380 
1.2e-07 114.187 2.47556e+25 302.712 103464 
2e-07 114.154 2.47396e+25 302.975 103486 
2.8e-07 114.194 2.47386e+25 303.8 103764 
3.6e-07 114.24 2.46821e+25 303.626 103467 
4.4e-07 114.228 2.47037e+25 303.818 103624 
5.2e-07 114.153 2.46076e+25 303.811 103218 
6e-07 114.19 2.46177e+25 304.252 103411 
6.8e-07 114.229 2.45824e+25 304.323 103286 
7.6e-07 114.215 2.47156e+25 303.968 103725 
8.4e-07 114.133 2.45986e+25 304.581 103442 
9.2e-07 114.185 2.46094e+25 304.676 103519 
1e-06 114.249 2.47044e+25 303.751 103604 
1.08e-06 114.122 2.46064e+25 303.767 103198 
1.16e-06 114.189 2.45915e+25 305.327 103666 
1.24e-06 114.146 2.44e+25 306.629 103297 
1.32e-06 114.191 2.45526e+25 305.184 103453 
1.4e-06 114.197 2.46259e+25 304.822 103638 
1.48e-06 114.182 2.45416e+25 304.718 103249 
1.56e-06 114.242 2.46015e+25 304.391 103389 
1.64e-06 114.128 2.4768e+25 302.865 103567 
1.72e-06 114.284 2.47203e+25 303.071 103438 
1.8e-06 114.206 2.44916e+25 304.317 102903 
1.88e-06 114.199 2.45659e+25 304.481 103270 
1.96e-06 114.197 2.46072e+25 304.508 103453 
2.04e-06 114.083 2.45384e+25 304.361 103114 
2.12e-06 114.171 2.45833e+25 304.592 103382 
2.2e-06 114.107 2.46485e+25 303.537 103296 
2.28e-06 114.359 2.46487e+25 304.14 103502 
2.36e-06 114.206 2.46292e+25 304.938 103692 
2.44e-06 114.06 2.45593e+25 305.231 103497 
2.52e-06 114.247 2.46757e+25 304.423 103712 
2.6e-06 114.182 2.45997e+25 304.21 103321 
2.68e-06 114.23 2.45957e+25 305.318 103680 
2.76e-06 114.252 2.45789e+25 304.545 103347 
2.84e-06 114.157 2.46016e+25 304.283 103353 
2.92e-06 114.212 2.45936e+25 304.583 103422 
3e-06 114.206 2.45892e+25 304.799 103476 
3.08e-06 114.174 2.46207e+25 304.295 103438 
3.16e-06 114.306 2.46736e+25 303.978 103552 
3.24e-06 114.139 2.46136e+25 303.869 103263 
3.32e-06 114.152 2.4704e+25 303.596 103549 
3.4e-06 114.115 2.46163e+25 303.531 103160 
3.48e-06 114.253 2.47116e+25 303.443 103529 
3.56e-06 114.191 2.46542e+25 304.051 103495 
3.64e-06 114.25 2.478e+25 302.805 103597 
3.72e-06 114.187 2.47332e+25 302.781 103394 
3.8e-06 114.277 2.47761e+25 302.484 103471 
3.88e-06 114.095 2.4749e+25 303.238 103615 
3.96e-06 114.258 2.46941e+25 302.912 103274 
4.04e-06 114.208 2.47229e+25 303.122 103467 
4.12e-06 114.293 2.47318e+25 303.455 103617 
4.2e-06 114.182 2.46246e+25 303.702 103252 
4.28e-06 114.213 2.47038e+25 303.924 103660 
4.36e-06 114.203 2.45767e+25 304.159 103207 
4.44e-06 114.098 2.45503e+25 304.23 103120 
4.52e-06 114.224 2.4587e+25 304.614 103404 
4.6e-06 114.223 2.47357e+25 303.709 103721 
4.68e-06 114.27 2.46087e+25 303.812 103223 
4.76e-06 114.216 2.46054e+25 304.792 103542 
4.84e-06 114.208 2.45949e+25 304.88 103528 
4.92e-06 114.169 2.45439e+25 304.586 103214 
5e-06 114.072 2.4524e+25 305.334 103383 
5.08e-06 114.218 2.4467e+25 305.517 103205 
5.16e-06 114.145 2.45343e+25 305.739 103563 
5.24e-06 114.137 2.45442e+25 305.205 103425 
5.32e-06 114.059 2.43964e+25 305.998 103069 
5.4e-06 114.109 2.45634e+25 305.332 103548 
5.48e-06 114.264 2.47096e+25 304.095 103743 
5.56e-06 114.191 2.45003e+25 305.067 103193 
5.64e-06 114.25 2.45675e+25 305.186 103516 
5.72e-06 114.135 2.46066e+25 304.799 103549 
5.8e-06 114.105 2.45759e+25 304.255 103236 
5.88e-06 114.163 2.45255e+25 304.269 103029 
5.96e-06 114.209 2.46178e+25 304.836 103609 
6.04e-06 114.146 2.45186e+25 304.894 103211 
6.12e-06 114.076 2.45727e+25 305.017 103481 
6.2e-06 114.054 2.44572e+25 306.015 103332 
6.28e-06 114.129 2.4502e+25 305.839 103461 
6.36e-06 114.228 2.44456e+25 306.386 103407 
6.44e-06 114.108 2.44484e+25 305.99 103286 
6.52e-06 114.114 2.44457e+25 305.818 103217 
6.6e-06 114.214 2.44554e+25 305.032 102992 
6.68e-06 114.215 2.46558e+25 303.844 103432 
6.76e-06 114.068 2.44967e+25 304.978 103147 
6.84e-06 114.233 2.45589e+25 304.507 103250 
6.92e-06 114.178 2.46196e+25 304.964 103661 
7e-06 114.265 2.4713e+25 304.009 103728 
7.08e-06 114.2 2.45655e+25 304.59 103306 
7.16e-06 114.25 2.46384e+25 304.261 103500 
7.24e-06 114.204 2.45916e+25 304.504 103386 
7.32e-06 114.135 2.4542e+25 304.624 103218 
7.4e-06 114.209 2.46801e+25 304.154 103639 
7.48e-06 114.201 2.44801e+25 305.113 103123 
7.56e-06 114.167 2.45863e+25 304.978 103525 
7.64e-06 114.182 2.44513e+25 305.272 103056 
7.72e-06 114.216 2.46194e+25 304.885 103633 
7.8e-06 114.176 2.45176e+25 305.003 103244 
7.88e-06 114.189 2.46293e+25 304.224 103450 
7.96e-06 114.111 2.45463e+25 304.943 103345 
8.04e-06 114.148 2.45947e+25 305.126 103610 
8.12e-06 114.118 2.46167e+25 304.83 103603 
8.2e-06 114.196 2.46595e+25 304.716 103744 
8.28e-06 114.214 2.45208e+25 305.111 103294 
8.36e-06 114.194 2.45647e+25 305.018 103447 
8.44e-06 114.144 2.44885e+25 305.734 103369 
8.52e-06 114.314 2.45998e+25 304.144 103298 
8.6e-06 114.032 2.44888e+25 304.716 103026 
8.68e-06 114.23 2.47702e+25 304.092 103996 
8.76e-06 114.135 2.45547e+25 305.255 103486 
8.84e-06 114.237 2.46675e+25 305.227 103952 
8.92e-06 114.044 2.45209e+25 305.637 103473 
9e-06 114.103 2.46843e+25 303.782 103530 
9.08e-06 114.148 2.45566e+25 304.221 103143 
9.16e-06 114.279 2.47385e+25 303.35 103610 
9.24e-06 114.2 2.4579e+25 304.294 103262 
9.32e-06 114.226 2.47241e+25 303.583 103629 
9.4e-06 114.24 2.47408e+25 303.834 103785 
9.48e-06 114.227 2.47174e+25 302.858 103354 
9.56e-06 114.228 2.47136e+25 303.469 103546 
9.64e-06 114.175 2.46191e+25 303.706 103231 
9.72e-06 114.186 2.46278e+25 302.815 102964 
9.8e-06 114.323 2.48295e+25 301.857 103479 
9.88e-06 114.282 2.48229e+25 302.035 103513 
9.96e-06 114.298 2.49103e+25 300.624 103392 
