ITEM: TIMESTEP
1000000
ITEM: NUMBER OF CELLS
125
ITEM: BOX BOUNDS pp ss pp
0 0.0001
0 1e-05
0 0.0001
ITEM: CELLS yc f_rho[1] f_rho[2] f_state[1] f_state[2] 
4e-08 132.947 2.8916e+25 320.467 127939 
1.2e-07 133.067 2.89015e+25 322.544 128704 
2e-07 132.954 2.88112e+25 324.253 128982 
2.8e-07 132.947 2.8724e+25 326.142 129341 
3.6e-07 132.718 2.84874e+25 328.625 129252 
4.4e-07 132.567 2.82156e+25 331.542 129155 
5.2e-07 132.397 2.79829e+25 333.939 129016 
6e-07 132.146 2.77337e+25 337.251 129135 
6.8e-07 132.128 2.75104e+25 339.434 128925 
7.6e-07 132.005 2.73876e+25 341.816 129250 
8.4e-07 131.715 2.70693e+25 345.31 129053 
9.2e-07 131.556 2.6957e+25 346.615 129004 
1e-06 131.348 2.66981e+25 349.096 128679 
1.08e-06 131.433 2.66599e+25 350.837 129136 
1.16e-06 131.279 2.65015e+25 353.13 129207 
1.24e-06 131.09 2.6273e+25 355.653 129009 
1.32e-06 130.975 2.61255e+25 357.337 128892 
1.4e-06 130.892 2.59097e+25 359.448 128582 
1.48e-06 130.834 2.59126e+25 360.494 128971 
1.56e-06 130.713 2.57122e+25 362.761 128778 
1.64e-06 130.623 2.55846e+25 365.025 128939 
1.72e-06 130.528 2.542e+25 366.951 128785 
1.8e-06 130.471 2.53287e+25 368.249 128777 
1.88e-06 130.238 2.5189e+25 370.062 128697 
1.96e-06 130.296 2.51414e+25 372.187 129191 
2.04e-06 130.096 2.49637e+25 373.201 128628 
2.12e-06 129.978 2.48247e+25 375.867 128825 
2.2e-06 129.926 2.46898e+25 377.657 128736 
2.28e-06 129.805 2.45756e+25 379.195 128662 
2.36e-06 129.738 2.44759e+25 381.266 128840 
2.44e-06 129.7 2.43532e+25 383.099 128810 
2.52e-06 129.594 2.42781e+25 383.763 128635 
2.6e-06 129.675 2.42366e+25 384.995 128828 
2.68e-06 129.382 2.40436e+25 386.721 128375 
2.76e-06 129.357 2.40646e+25 387.857 128865 
2.84e-06 129.277 2.38598e+25 390.193 128537 
2.92e-06 129.299 2.38812e+25 390.349 128704 
3e-06 129.23 2.37669e+25 391.675 128523 
3.08e-06 129.133 2.36654e+25 393.777 128661 
3.16e-06 129.069 2.36448e+25 394.287 128716 
3.24e-06 129.066 2.35819e+25 395.414 128740 
3.32e-06 129.038 2.35095e+25 396.691 128759 
3.4e-06 128.989 2.3409e+25 397.595 128501 
3.48e-06 129.082 2.35332e+25 396.961 128977 
3.56e-06 128.935 2.33948e+25 398.185 128614 
3.64e-06 128.82 2.33074e+25 399.241 128473 
3.72e-06 128.9 2.32861e+25 400.274 128688 
3.8e-06 128.695 2.31803e+25 401.147 128383 
3.88e-06 128.731 2.31748e+25 401.519 128471 
3.96e-06 128.724 2.31307e+25 402.592 128569 
4.04e-06 128.716 2.30798e+25 403.316 128517 
4.12e-06 128.67 2.30496e+25 403.725 128479 
4.2e-06 128.751 2.31285e+25 403.888 128971 
4.28e-06 128.694 2.30121e+25 405.341 128783 
4.36e-06 128.65 2.30053e+25 405.289 128729 
4.44e-06 128.592 2.29233e+25 406.074 128518 
4.52e-06 128.528 2.28433e+25 407.106 128396 
4.6e-06 128.655 2.28893e+25 407.622 128817 
4.68e-06 128.546 2.28382e+25 407.31 128431 
4.76e-06 128.588 2.28895e+25 406.921 128597 
4.84e-06 128.556 2.28889e+25 407.325 128721 
4.92e-06 128.442 2.27644e+25 408.864 128504 
5e-06 128.554 2.27786e+25 408.577 128494 
5.08e-06 128.371 2.27981e+25 408.87 128696 
5.16e-06 128.461 2.27758e+25 409.059 128630 
5.24e-06 128.415 2.26887e+25 409.357 128232 
5.32e-06 128.525 2.28507e+25 408.425 128853 
5.4e-06 128.402 2.26796e+25 409.453 128210 
5.48e-06 128.376 2.27453e+25 409.219 128508 
5.56e-06 128.407 2.26997e+25 409.679 128394 
5.64e-06 128.477 2.26621e+25 410.418 128413 
5.72e-06 128.478 2.27412e+25 409.111 128451 
5.8e-06 128.478 2.27932e+25 408.577 128576 
5.88e-06 128.382 2.27126e+25 410.471 128716 
5.96e-06 128.471 2.27171e+25 409.446 128420 
6.04e-06 128.43 2.27437e+25 409.987 128740 
6.12e-06 128.314 2.2657e+25 409.885 128217 
6.2e-06 128.348 2.26386e+25 410.156 128198 
6.28e-06 128.418 2.27088e+25 409.685 128448 
6.36e-06 128.49 2.28011e+25 409.089 128782 
6.44e-06 128.441 2.27815e+25 408.572 128509 
6.52e-06 128.478 2.27978e+25 408.101 128453 
6.6e-06 128.456 2.28011e+25 407.041 128138 
6.68e-06 128.502 2.28971e+25 407.018 128670 
6.76e-06 128.511 2.28718e+25 407.323 128624 
6.84e-06 128.602 2.28743e+25 407.134 128579 
6.92e-06 128.604 2.29877e+25 405.995 128855 
7e-06 128.594 2.29743e+25 405.714 128690 
7.08e-06 128.591 2.30019e+25 405.602 128809 
7.16e-06 128.736 2.30831e+25 403.941 128735 
7.24e-06 128.668 2.30808e+25 403.201 128486 
7.32e-06 128.817 2.32306e+25 402.004 128936 
7.4e-06 128.832 2.32215e+25 401.384 128687 
7.48e-06 128.819 2.32768e+25 399.671 128443 
7.56e-06 128.958 2.34034e+25 397.761 128524 
7.64e-06 128.939 2.34534e+25 396.44 128371 
7.72e-06 129.032 2.35559e+25 396.552 128968 
7.8e-06 129.106 2.37132e+25 394.708 129226 
7.88e-06 129.216 2.3771e+25 393.029 128990 
7.96e-06 129.182 2.38874e+25 390.235 128700 
8.04e-06 129.244 2.39285e+25 390.135 128888 
8.12e-06 129.54 2.41514e+25 387.449 129193 
8.2e-06 129.516 2.42166e+25 385.831 129001 
8.28e-06 129.552 2.41992e+25 383.886 128258 
8.36e-06 129.662 2.43718e+25 381.748 128454 
8.44e-06 129.667 2.44251e+25 380.108 128182 
8.52e-06 129.944 2.46992e+25 377.921 128875 
8.6e-06 130.139 2.49654e+25 375.689 129494 
8.68e-06 130.08 2.50161e+25 373.358 128952 
8.76e-06 130.217 2.51076e+25 370.839 128551 
8.84e-06 130.367 2.52603e+25 369.718 128942 
8.92e-06 130.461 2.54884e+25 366.86 129100 
9e-06 130.552 2.5654e+25 364.088 128957 
9.08e-06 130.823 2.59477e+25 360.042 128984 
9.16e-06 131.204 2.63261e+25 355.841 129338 
9.24e-06 131.336 2.65887e+25 351.515 129040 
9.32e-06 131.504 2.68657e+25 348.122 129126 
9.4e-06 131.715 2.71054e+25 343.953 128717 
9.48e-06 132.051 2.75252e+25 339.373 128971 
9.56e-06 132.477 2.80668e+25 335.368 129957 
9.64e-06 132.733 2.84185e+25 330.559 129698 
9.72e-06 133.333 2.90295e+25 324.975 130248 
9.8e-06 133.631 2.95739e+25 319.321 130383 
9.88e-06 133.918 3.00362e+25 314.978 130620 
9.96e-06 135.236 3.17254e+25 305.178 133673 
