ITEM: TIMESTEP
1000000
ITEM: NUMBER OF CELLS
125
ITEM: BOX BOUNDS pp ss pp
0 0.0001
0 1e-05
0 0.0001
ITEM: CELLS yc f_rho[1] f_rho[2] f_state[1] f_state[2] 
4e-08 108.746 2.50411e+25 295.934 102313 
1.2e-07 109.166 2.51133e+25 296.148 102682 
2e-07 108.985 2.4901e+25 298.363 102575 
2.8e-07 108.811 2.47305e+25 299.912 102402 
3.6e-07 108.744 2.47663e+25 300.465 102740 
4.4e-07 108.856 2.47789e+25 300.532 102815 
5.2e-07 108.783 2.46895e+25 300.833 102547 
6e-07 108.827 2.46742e+25 300.801 102472 
6.8e-07 108.641 2.45954e+25 302.623 102764 
7.6e-07 108.66 2.4586e+25 302.916 102824 
8.4e-07 108.746 2.46294e+25 302.467 102853 
9.2e-07 108.589 2.45515e+25 302.862 102661 
1e-06 108.781 2.46121e+25 301.62 102493 
1.08e-06 108.775 2.45253e+25 302.578 102455 
1.16e-06 108.601 2.45434e+25 302.186 102398 
1.24e-06 108.689 2.45871e+25 302.882 102817 
1.32e-06 108.736 2.4557e+25 302.732 102640 
1.4e-06 108.751 2.45837e+25 301.923 102477 
1.48e-06 108.637 2.45596e+25 302.962 102729 
1.56e-06 108.738 2.44968e+25 303.348 102597 
1.64e-06 108.746 2.45603e+25 302.376 102533 
1.72e-06 108.727 2.45884e+25 302.059 102543 
1.8e-06 108.83 2.45647e+25 302.966 102752 
1.88e-06 108.662 2.45387e+25 302.293 102415 
1.96e-06 108.82 2.45858e+25 301.83 102454 
2.04e-06 108.634 2.46276e+25 301.507 102519 
2.12e-06 108.656 2.45963e+25 301.536 102398 
2.2e-06 108.728 2.45109e+25 303.162 102593 
2.28e-06 108.658 2.45065e+25 303.005 102521 
2.36e-06 108.531 2.45167e+25 303.159 102616 
2.44e-06 108.608 2.44573e+25 304.166 102707 
2.52e-06 108.715 2.45102e+25 303.56 102724 
2.6e-06 108.607 2.44474e+25 303.591 102472 
2.68e-06 108.686 2.4534e+25 303.16 102689 
2.76e-06 108.684 2.44989e+25 302.592 102350 
2.84e-06 108.646 2.46127e+25 302.242 102706 
2.92e-06 108.763 2.46425e+25 301.988 102745 
3e-06 108.809 2.45994e+25 302.078 102595 
3.08e-06 108.721 2.46097e+25 301.963 102599 
3.16e-06 108.72 2.46179e+25 302.186 102709 
3.24e-06 108.672 2.46473e+25 301.524 102606 
3.32e-06 108.703 2.46496e+25 300.903 102404 
3.4e-06 108.776 2.45576e+25 301.692 102290 
3.48e-06 108.809 2.46321e+25 302.254 102791 
3.56e-06 108.599 2.45613e+25 302.338 102525 
3.64e-06 108.59 2.45371e+25 302.317 102416 
3.72e-06 108.705 2.45697e+25 301.772 102368 
3.8e-06 108.815 2.46137e+25 302.919 102940 
3.88e-06 108.733 2.45958e+25 302.627 102767 
3.96e-06 108.818 2.45791e+25 302.777 102748 
4.04e-06 108.535 2.45077e+25 303.39 102656 
4.12e-06 108.619 2.45931e+25 302.094 102574 
4.2e-06 108.692 2.45701e+25 302.765 102706 
4.28e-06 108.675 2.45886e+25 302.411 102663 
4.36e-06 108.766 2.46015e+25 302.718 102821 
4.44e-06 108.558 2.45026e+25 302.557 102353 
4.52e-06 108.701 2.46066e+25 303.042 102953 
4.6e-06 108.798 2.45462e+25 302.615 102555 
4.68e-06 108.555 2.45498e+25 302.207 102432 
4.76e-06 108.687 2.44751e+25 303.598 102590 
4.84e-06 108.59 2.4443e+25 303.544 102438 
4.92e-06 108.66 2.45334e+25 302.509 102466 
5e-06 108.61 2.45048e+25 302.93 102489 
5.08e-06 108.622 2.44876e+25 303.686 102672 
5.16e-06 108.77 2.45227e+25 303.239 102668 
5.24e-06 108.809 2.45242e+25 303.603 102798 
5.32e-06 108.592 2.44383e+25 303.405 102371 
5.4e-06 108.624 2.45693e+25 303.054 102801 
5.48e-06 108.707 2.45782e+25 302.568 102673 
5.56e-06 108.577 2.45046e+25 303.279 102606 
5.64e-06 108.676 2.45592e+25 302.883 102700 
5.72e-06 108.741 2.45927e+25 302.648 102761 
5.8e-06 108.845 2.45502e+25 302.996 102701 
5.88e-06 108.641 2.44418e+25 303.83 102529 
5.96e-06 108.641 2.44799e+25 303.743 102659 
6.04e-06 108.662 2.45251e+25 303.074 102622 
6.12e-06 108.56 2.44894e+25 303.803 102720 
6.2e-06 108.674 2.45425e+25 302.9 102636 
6.28e-06 108.711 2.45741e+25 302.446 102615 
6.36e-06 108.792 2.45732e+25 302.673 102688 
6.44e-06 108.657 2.45448e+25 302.695 102577 
6.52e-06 108.581 2.44782e+25 303.212 102473 
6.6e-06 108.599 2.4458e+25 302.856 102268 
6.68e-06 108.64 2.45096e+25 302.998 102532 
6.76e-06 108.868 2.45287e+25 303.142 102661 
6.84e-06 108.722 2.45334e+25 303.659 102855 
6.92e-06 108.669 2.45411e+25 303.755 102920 
7e-06 108.587 2.44265e+25 304.071 102546 
7.08e-06 108.685 2.4496e+25 302.858 102428 
7.16e-06 108.654 2.45336e+25 303.064 102655 
7.24e-06 108.696 2.45305e+25 303.033 102631 
7.32e-06 108.778 2.45159e+25 302.673 102448 
7.4e-06 108.701 2.454e+25 302.045 102336 
7.48e-06 108.763 2.45934e+25 301.165 102260 
7.56e-06 108.792 2.46152e+25 301.59 102495 
7.64e-06 108.871 2.47042e+25 301.662 102890 
7.72e-06 108.842 2.46719e+25 301.267 102621 
7.8e-06 108.71 2.46782e+25 300.689 102451 
7.88e-06 108.721 2.47408e+25 300.305 102579 
7.96e-06 108.754 2.46346e+25 301.824 102656 
8.04e-06 108.742 2.46324e+25 301.247 102450 
8.12e-06 108.858 2.47488e+25 300.608 102716 
8.2e-06 108.79 2.46134e+25 301.88 102586 
8.28e-06 108.529 2.45557e+25 302.214 102459 
8.36e-06 108.73 2.46047e+25 302.129 102634 
8.44e-06 108.768 2.46734e+25 301.327 102648 
8.52e-06 108.935 2.47375e+25 300.939 102782 
8.6e-06 108.732 2.46889e+25 300.737 102511 
8.68e-06 108.802 2.46383e+25 301.193 102456 
8.76e-06 108.714 2.46705e+25 301.239 102606 
8.84e-06 108.744 2.46902e+25 300.685 102499 
8.92e-06 108.703 2.47172e+25 300.666 102605 
9e-06 108.662 2.47032e+25 300.696 102557 
9.08e-06 108.727 2.46721e+25 300.629 102405 
9.16e-06 108.854 2.47267e+25 300.185 102480 
9.24e-06 108.835 2.47472e+25 300.869 102799 
9.32e-06 108.836 2.47645e+25 300.077 102600 
9.4e-06 108.891 2.48202e+25 300.203 102874 
9.48e-06 108.892 2.47668e+25 299.951 102566 
9.56e-06 108.89 2.4776e+25 299.764 102540 
9.64e-06 108.972 2.48815e+25 298.676 102603 
9.72e-06 108.983 2.4889e+25 298.927 102720 
9.8e-06 109.144 2.50688e+25 296.47 102612 
9.88e-06 109.167 2.51448e+25 295.449 102569 
9.96e-06 108.798 2.50719e+25 296.032 102473 
