ITEM: TIMESTEP
1000000
ITEM: NUMBER OF CELLS
125
ITEM: BOX BOUNDS pp ss pp
0 0.0001
0 1e-05
0 0.0001
ITEM: CELLS yc f_rho[1] f_rho[2] f_state[1] f_state[2] 
4e-08 114.075 2.45291e+25 296.316 100351 
1.2e-07 114.306 2.49616e+25 292.906 100945 
2e-07 114.207 2.48249e+25 293.069 100448 
2.8e-07 114.121 2.46301e+25 294.498 100146 
3.6e-07 114.263 2.46692e+25 294.376 100263 
4.4e-07 114.26 2.47211e+25 293.841 100291 
5.2e-07 114.21 2.46129e+25 294.041 99920.4 
6e-07 114.273 2.46258e+25 294.617 100169 
6.8e-07 114.213 2.46588e+25 293.945 100074 
7.6e-07 114.182 2.46831e+25 293.901 100158 
8.4e-07 114.118 2.45667e+25 294.681 99949.7 
9.2e-07 114.177 2.46871e+25 294.392 100342 
1e-06 114.213 2.46039e+25 294.74 100121 
1.08e-06 114.233 2.45431e+25 294.736 99872.4 
1.16e-06 114.14 2.45799e+25 294.631 99986.9 
1.24e-06 114.142 2.46005e+25 294.68 100087 
1.32e-06 114.127 2.45779e+25 295.12 100145 
1.4e-06 114.255 2.46884e+25 294.705 100453 
1.48e-06 114.141 2.46127e+25 294.991 100242 
1.56e-06 114.1 2.44729e+25 295.544 99859.9 
1.64e-06 114.198 2.46545e+25 294.581 100273 
1.72e-06 114.091 2.45844e+25 294.332 99903.3 
1.8e-06 114.263 2.46107e+25 294.376 100025 
1.88e-06 114.058 2.45138e+25 294.826 99784 
1.96e-06 114.112 2.45543e+25 294.659 99891.7 
2.04e-06 114.083 2.46469e+25 294.53 100224 
2.12e-06 114.155 2.46678e+25 293.979 100122 
2.2e-06 114.128 2.47405e+25 293.507 100256 
2.28e-06 114.097 2.47085e+25 293.066 99975.7 
2.36e-06 114.205 2.47197e+25 293.114 100038 
2.44e-06 114.188 2.47481e+25 293.027 100123 
2.52e-06 114.256 2.47163e+25 293.127 100028 
2.6e-06 114.145 2.46969e+25 293.439 100056 
2.68e-06 114.206 2.47137e+25 293.273 100067 
2.76e-06 114.166 2.47262e+25 293.435 100173 
2.84e-06 114.266 2.47677e+25 292.26 99939.7 
2.92e-06 114.249 2.47891e+25 292.312 100044 
3e-06 114.215 2.4844e+25 292.683 100393 
3.08e-06 114.112 2.4816e+25 292.404 100184 
3.16e-06 114.276 2.48427e+25 292.001 100154 
3.24e-06 114.235 2.4754e+25 291.793 99724.7 
3.32e-06 114.205 2.48183e+25 291.461 99870 
3.4e-06 114.214 2.4848e+25 292.558 100366 
3.48e-06 114.283 2.48154e+25 292.399 100180 
3.56e-06 114.258 2.47605e+25 292.47 99982.3 
3.64e-06 114.169 2.47096e+25 292.602 99821.9 
3.72e-06 114.156 2.47738e+25 292.711 100119 
3.8e-06 114.315 2.48351e+25 292.632 100339 
3.88e-06 114.167 2.46308e+25 294.063 100001 
3.96e-06 114.211 2.46795e+25 293.665 100063 
4.04e-06 114.19 2.46557e+25 293.669 99967.3 
4.12e-06 114.238 2.46585e+25 293.258 99838.9 
4.2e-06 114.237 2.4697e+25 292.828 99848.2 
4.28e-06 114.094 2.46387e+25 293.595 99873.3 
4.36e-06 114.213 2.45515e+25 294.116 99696.5 
4.44e-06 114.214 2.464e+25 294.376 100144 
4.52e-06 114.126 2.45361e+25 295.045 99948.6 
4.6e-06 114.149 2.46224e+25 294.36 100067 
4.68e-06 114.186 2.4565e+25 294.598 99915 
4.76e-06 114.237 2.46061e+25 295.123 100260 
4.84e-06 114.163 2.46043e+25 295.13 100256 
4.92e-06 114.198 2.46183e+25 294.554 100117 
5e-06 114.137 2.46184e+25 295.034 100280 
5.08e-06 114.114 2.45159e+25 295.259 99938.6 
5.16e-06 114.109 2.44738e+25 295.118 99719.5 
5.24e-06 114.165 2.44801e+25 295.353 99824.6 
5.32e-06 114.143 2.45396e+25 295.062 99968.5 
5.4e-06 114.125 2.45157e+25 295.602 100054 
5.48e-06 114.243 2.46028e+25 293.977 99857.5 
5.56e-06 114.204 2.45932e+25 295.514 100340 
5.64e-06 114.22 2.45265e+25 295.914 100204 
5.72e-06 114.183 2.44003e+25 296.458 99871.3 
5.8e-06 114.153 2.4476e+25 296.114 100065 
5.88e-06 114.114 2.44999e+25 296.093 100156 
5.96e-06 114.058 2.44175e+25 296.298 99887.7 
6.04e-06 114.215 2.44983e+25 295.331 99891.4 
6.12e-06 114.236 2.45e+25 296.066 100147 
6.2e-06 114.134 2.45444e+25 294.515 99802.7 
6.28e-06 114.151 2.44798e+25 295.875 99999.6 
6.36e-06 114.105 2.44328e+25 296.85 100137 
6.44e-06 114.113 2.43903e+25 296.621 99885.6 
6.52e-06 114.085 2.43577e+25 296.319 99650.4 
6.6e-06 114.096 2.4425e+25 295.923 99791.9 
6.68e-06 114.12 2.44988e+25 295.442 99931.3 
6.76e-06 114.144 2.45831e+25 295.018 100131 
6.84e-06 114.251 2.45574e+25 295.847 100307 
6.92e-06 114.246 2.46366e+25 294.77 100265 
7e-06 114.145 2.45184e+25 296.214 100272 
7.08e-06 114.142 2.45309e+25 295.361 100034 
7.16e-06 114.195 2.45287e+25 295.367 100027 
7.24e-06 114.058 2.46008e+25 294.568 100050 
7.32e-06 114.171 2.46271e+25 294.654 100186 
7.4e-06 114.174 2.45198e+25 295.037 99879.6 
7.48e-06 114.073 2.45117e+25 295.43 99979.5 
7.56e-06 114.218 2.45013e+25 295.198 99858.8 
7.64e-06 114.137 2.45249e+25 294.145 99598 
7.72e-06 114.195 2.468e+25 293.103 99873 
7.8e-06 114.185 2.47148e+25 293.908 100289 
7.88e-06 114.219 2.45918e+25 294.615 100030 
7.96e-06 114.194 2.4651e+25 294.715 100304 
8.04e-06 114.227 2.46465e+25 294.231 100121 
8.12e-06 114.279 2.46813e+25 294.238 100265 
8.2e-06 114.21 2.46249e+25 294.101 99989.3 
8.28e-06 114.181 2.45782e+25 294.873 100062 
8.36e-06 114.175 2.45211e+25 294.878 99831 
8.44e-06 114.107 2.44789e+25 295.246 99783.7 
8.52e-06 114.091 2.45205e+25 295.531 100050 
8.6e-06 114.151 2.44512e+25 295.816 99862.9 
8.68e-06 114.164 2.45041e+25 296.33 100253 
8.76e-06 114.105 2.45231e+25 295.387 100011 
8.84e-06 114.111 2.45968e+25 295.35 100299 
8.92e-06 114.12 2.45052e+25 295.998 100145 
9e-06 114.178 2.45097e+25 295.553 100013 
9.08e-06 114.04 2.45323e+25 295.461 100074 
9.16e-06 114.198 2.46281e+25 295.092 100339 
9.24e-06 114.155 2.44743e+25 295.943 100000 
9.32e-06 114.117 2.46124e+25 295.408 100383 
9.4e-06 114.117 2.45279e+25 295.862 100192 
9.48e-06 114.182 2.45632e+25 295.494 100211 
9.56e-06 114.141 2.45963e+25 295.324 100289 
9.64e-06 114.068 2.46478e+25 295.173 100447 
9.72e-06 114.23 2.46871e+25 294.45 100361 
9.8e-06 114.216 2.48195e+25 293.094 100435 
9.88e-06 114.308 2.49564e+25 292.225 100689 
9.96e-06 114.084 2.46641e+25 295.044 100470 
