ITEM: TIMESTEP
1000000
ITEM: NUMBER OF CELLS
125
ITEM: BOX BOUNDS pp ss pp
0 0.0001
0 1e-05
0 0.0001
ITEM: CELLS yc f_rho[1] f_rho[2] f_state[1] f_state[2] 
4e-08 114.24 2.48138e+25 304.125 104191 
1.2e-07 114.198 2.46247e+25 304.194 103420 
2e-07 114.18 2.47233e+25 304.113 103806 
2.8e-07 114.23 2.4759e+25 303.874 103874 
3.6e-07 114.079 2.47196e+25 304.464 103911 
4.4e-07 114.055 2.47406e+25 304.705 104081 
5.2e-07 114.156 2.47887e+25 303.984 104037 
6e-07 114.208 2.46842e+25 303.715 103507 
6.8e-07 114.262 2.47751e+25 304.698 104224 
7.6e-07 114.158 2.47265e+25 304.878 104081 
8.4e-07 114.205 2.45664e+25 305.216 103522 
9.2e-07 114.237 2.45179e+25 305.899 103549 
1e-06 114.141 2.45132e+25 305.352 103344 
1.08e-06 114.081 2.44888e+25 306.648 103679 
1.16e-06 114.1 2.44684e+25 305.672 103263 
1.24e-06 114.163 2.45926e+25 305.956 103884 
1.32e-06 114.09 2.45766e+25 305.426 103636 
1.4e-06 114.213 2.44789e+25 305.996 103417 
1.48e-06 114.18 2.47349e+25 305.012 104162 
1.56e-06 114.168 2.45243e+25 305.879 103569 
1.64e-06 114.198 2.46134e+25 305.071 103670 
1.72e-06 114.294 2.48189e+25 305.363 104636 
1.8e-06 114.117 2.44824e+25 305.491 103261 
1.88e-06 114.183 2.47125e+25 304.796 103994 
1.96e-06 114.188 2.4496e+25 306.381 103619 
2.04e-06 114.194 2.45133e+25 305.962 103551 
2.12e-06 114.303 2.4791e+25 305.177 104455 
2.2e-06 114.241 2.46349e+25 305.517 103913 
2.28e-06 114.057 2.45661e+25 305.602 103651 
2.36e-06 114.13 2.461e+25 306.227 104049 
2.44e-06 114.103 2.43646e+25 306.908 103241 
2.52e-06 114.116 2.44626e+25 306.173 103408 
2.6e-06 114.21 2.46035e+25 305.123 103646 
2.68e-06 114.138 2.45079e+25 306.388 103672 
2.76e-06 114.138 2.46076e+25 305.989 103958 
2.84e-06 114.053 2.46401e+25 305.984 104094 
2.92e-06 114.144 2.4436e+25 305.812 103174 
3e-06 114.117 2.45929e+25 306.342 104016 
3.08e-06 114.14 2.4512e+25 307.33 104008 
3.16e-06 114.176 2.46308e+25 305.867 104014 
3.24e-06 114.18 2.45272e+25 306.326 103733 
3.32e-06 114.105 2.44898e+25 306.568 103656 
3.4e-06 114.122 2.44239e+25 306.704 103423 
3.48e-06 114.144 2.43965e+25 307.474 103567 
3.56e-06 114.109 2.44495e+25 307.074 103656 
3.64e-06 114.136 2.45197e+25 307.45 104082 
3.72e-06 114.199 2.45183e+25 306.841 103869 
3.8e-06 114.15 2.4598e+25 306.807 104195 
3.88e-06 114.054 2.4427e+25 306.928 103512 
3.96e-06 114.262 2.46059e+25 306.363 104078 
4.04e-06 114.12 2.44354e+25 307.281 103667 
4.12e-06 114.152 2.45194e+25 307.571 104121 
4.2e-06 114.112 2.44619e+25 305.872 103303 
4.28e-06 114.063 2.43726e+25 307.076 103331 
4.36e-06 114.21 2.4568e+25 307.707 104374 
4.44e-06 114.062 2.45382e+25 307.1 104041 
4.52e-06 114.113 2.43713e+25 306.465 103120 
4.6e-06 114.165 2.44629e+25 306.362 103473 
4.68e-06 114.188 2.45366e+25 306.112 103700 
4.76e-06 114.134 2.45251e+25 306.021 103621 
4.84e-06 114.087 2.45675e+25 304.742 103366 
4.92e-06 114.09 2.46268e+25 305.207 103773 
5e-06 114.733 2.60299e+25 306.033 109983 
5.08e-06 114.621 2.57926e+25 304.772 108531 
5.16e-06 114.175 2.47549e+25 303.81 103836 
5.24e-06 114.117 2.47152e+25 304.358 103856 
5.32e-06 114.224 2.4837e+25 304.328 104358 
5.4e-06 114.125 2.4723e+25 304.518 103944 
5.48e-06 114.139 2.4702e+25 304.349 103798 
5.56e-06 114.186 2.47276e+25 305.07 104151 
5.64e-06 114.144 2.4669e+25 304.712 103783 
5.72e-06 114.191 2.471e+25 304.904 104020 
5.8e-06 114.139 2.45443e+25 303.936 102995 
5.88e-06 114.167 2.46232e+25 305.388 103820 
5.96e-06 114.14 2.45065e+25 304.971 103187 
6.04e-06 114.263 2.46562e+25 305.148 103877 
6.12e-06 114.233 2.47398e+25 304.799 104110 
6.2e-06 114.214 2.46073e+25 305.141 103669 
6.28e-06 114.175 2.46654e+25 305.821 104145 
6.36e-06 114.239 2.4834e+25 303.44 104041 
6.44e-06 114.243 2.4743e+25 304.649 104072 
6.52e-06 114.219 2.47454e+25 304.079 103888 
6.6e-06 114.159 2.45821e+25 305.046 103530 
6.68e-06 114.137 2.46023e+25 305.927 103915 
6.76e-06 114.201 2.45157e+25 306.344 103690 
6.84e-06 114.118 2.46077e+25 305.573 103817 
6.92e-06 113.998 2.44665e+25 306.936 103682 
7e-06 114.154 2.45288e+25 305.496 103458 
7.08e-06 114.227 2.46187e+25 305.081 103696 
7.16e-06 114.078 2.4575e+25 305.741 103736 
7.24e-06 114.187 2.46982e+25 305.132 104048 
7.32e-06 114.147 2.45726e+25 305.274 103567 
7.4e-06 114.124 2.45137e+25 306.675 103794 
7.48e-06 114.123 2.45627e+25 306.24 103854 
7.56e-06 114.099 2.449e+25 306.644 103682 
7.64e-06 114.169 2.45719e+25 306.275 103904 
7.72e-06 114.246 2.46735e+25 305.977 104232 
7.8e-06 114.195 2.44539e+25 307.239 103731 
7.88e-06 114.065 2.43813e+25 307.061 103363 
7.96e-06 114.25 2.45761e+25 306.041 103843 
8.04e-06 114.19 2.45685e+25 306.675 104026 
8.12e-06 114.121 2.44069e+25 306.863 103405 
8.2e-06 114.077 2.44763e+25 306.569 103599 
8.28e-06 114.167 2.44869e+25 307.52 103966 
8.36e-06 114.176 2.45551e+25 305.868 103695 
8.44e-06 114.086 2.44972e+25 306.148 103545 
8.52e-06 114.15 2.45877e+25 305.739 103789 
8.6e-06 114.153 2.44979e+25 306.434 103645 
8.68e-06 114.185 2.44663e+25 306.273 103457 
8.76e-06 114.224 2.45891e+25 305.852 103833 
8.84e-06 114.136 2.43898e+25 306.46 103197 
8.92e-06 114.118 2.45986e+25 305.99 103921 
9e-06 114.109 2.45595e+25 305.676 103649 
9.08e-06 114.255 2.45997e+25 305.367 103713 
9.16e-06 114.051 2.45667e+25 304.857 103401 
9.24e-06 114.104 2.45634e+25 305.765 103695 
9.32e-06 114.251 2.48114e+25 304.483 104303 
9.4e-06 114.208 2.47723e+25 304.766 104236 
9.48e-06 114.059 2.46179e+25 303.572 103180 
9.56e-06 114.161 2.47247e+25 303.799 103705 
9.64e-06 114.184 2.47056e+25 302.997 103352 
9.72e-06 114.189 2.46886e+25 302.166 102997 
9.8e-06 114.276 2.47999e+25 303.046 103763 
9.88e-06 114.178 2.47076e+25 302.546 103206 
9.96e-06 114.175 2.49353e+25 302.012 103974 
