ITEM: TIMESTEP
1000000
ITEM: NUMBER OF CELLS
125
ITEM: BOX BOUNDS pp ss pp
0 0.0001
0 1e-05
0 0.0001
ITEM: CELLS yc f_rho[1] f_rho[2] f_state[1] f_state[2] 
4e-08 292.976 1.45355e+24 285.636 5732.26 
1.2e-07 287.407 1.13571e+24 305.468 4789.79 
2e-07 292.403 1.22736e+24 299.957 5082.95 
2.8e-07 290.317 1.18656e+24 302.903 4962.23 
3.6e-07 291.226 1.20927e+24 301.258 5029.72 
4.4e-07 290.805 1.20203e+24 301.186 4998.42 
5.2e-07 290.655 1.20363e+24 300.823 4999.03 
6e-07 290.675 1.20162e+24 300.923 4992.35 
6.8e-07 290.74 1.20129e+24 300.695 4987.23 
7.6e-07 290.887 1.20194e+24 300.337 4983.98 
8.4e-07 290.851 1.20648e+24 300.17 5000.03 
9.2e-07 290.571 1.19478e+24 300.374 4954.9 
1e-06 290.962 1.2054e+24 299.569 4985.52 
1.08e-06 290.921 1.20435e+24 300.036 4988.94 
1.16e-06 290.961 1.20685e+24 299.312 4987.26 
1.24e-06 290.574 1.20345e+24 299.397 4974.63 
1.32e-06 290.767 1.20934e+24 298.741 4988.01 
1.4e-06 291.174 1.2111e+24 298.909 4998.08 
1.48e-06 290.426 1.20433e+24 298.824 4968.72 
1.56e-06 290.833 1.21556e+24 297.863 4998.9 
1.64e-06 290.52 1.2056e+24 298.071 4961.42 
1.72e-06 290.92 1.21726e+24 297.33 4996.95 
1.8e-06 290.484 1.20632e+24 297.359 4952.54 
1.88e-06 290.956 1.21551e+24 296.936 4983.17 
1.96e-06 290.784 1.21071e+24 297.155 4967.15 
2.04e-06 290.727 1.21467e+24 296.5 4972.41 
2.12e-06 290.782 1.22186e+24 296.197 4996.73 
2.2e-06 290.574 1.20953e+24 296.648 4953.83 
2.28e-06 291.072 1.22251e+24 295.727 4991.43 
2.36e-06 290.752 1.21177e+24 296.247 4956.3 
2.44e-06 290.937 1.22219e+24 295.256 4982.19 
2.52e-06 290.584 1.21606e+24 295.793 4966.23 
2.6e-06 290.835 1.21954e+24 295.219 4970.76 
2.68e-06 290.772 1.21847e+24 295.137 4965.04 
2.76e-06 291.205 1.23049e+24 294.392 5001.37 
2.84e-06 290.688 1.21806e+24 295.016 4961.32 
2.92e-06 290.901 1.22111e+24 294.906 4971.87 
3e-06 290.722 1.2259e+24 294.319 4981.46 
3.08e-06 290.583 1.22049e+24 294.934 4969.83 
3.16e-06 290.582 1.22195e+24 294.745 4972.58 
3.24e-06 291.004 1.22953e+24 293.81 4987.55 
3.32e-06 290.587 1.22296e+24 294.046 4964.91 
3.4e-06 291.191 1.23586e+24 292.817 4996.29 
3.48e-06 290.716 1.22193e+24 294.308 4965.13 
3.56e-06 290.731 1.22111e+24 294.78 4969.77 
3.64e-06 290.765 1.22731e+24 293.927 4980.56 
3.72e-06 290.665 1.22897e+24 293.557 4981 
3.8e-06 290.778 1.22366e+24 294.241 4971.04 
3.88e-06 290.832 1.23142e+24 293.741 4994.06 
3.96e-06 290.631 1.22273e+24 293.968 4962.65 
4.04e-06 291.045 1.23399e+24 293.142 4994.3 
4.12e-06 290.324 1.22036e+24 294.31 4958.81 
4.2e-06 291.278 1.23279e+24 293.401 4993.85 
4.28e-06 290.752 1.22336e+24 293.76 4961.71 
4.36e-06 290.98 1.23377e+24 292.974 4990.52 
4.44e-06 291.166 1.2281e+24 293.395 4974.71 
4.52e-06 290.947 1.22939e+24 293.142 4975.66 
4.6e-06 290.475 1.22742e+24 293.265 4969.76 
4.68e-06 290.828 1.23596e+24 292.685 4994.45 
4.76e-06 290.876 1.22863e+24 293.012 4970.39 
4.84e-06 290.788 1.23452e+24 292.748 4989.73 
4.92e-06 290.512 1.2238e+24 293.683 4962.2 
5e-06 290.803 1.22974e+24 292.953 4973.87 
5.08e-06 291.107 1.22803e+24 293.253 4972.05 
5.16e-06 290.686 1.22726e+24 293.249 4968.87 
5.24e-06 290.785 1.22427e+24 293.263 4956.99 
5.32e-06 290.884 1.23336e+24 292.699 4984.2 
5.4e-06 290.609 1.23083e+24 292.671 4973.5 
5.48e-06 290.871 1.23136e+24 292.718 4976.43 
5.56e-06 290.753 1.22651e+24 293.108 4963.45 
5.64e-06 291.094 1.23802e+24 292.26 4995.5 
5.72e-06 291.137 1.23604e+24 292.812 4996.95 
5.8e-06 290.537 1.22559e+24 293.504 4966.41 
5.88e-06 290.819 1.23061e+24 292.839 4975.47 
5.96e-06 291.008 1.2319e+24 293.187 4986.59 
6.04e-06 290.835 1.22629e+24 293.327 4966.25 
6.12e-06 291.188 1.23261e+24 293.379 4992.71 
6.2e-06 290.666 1.22154e+24 294.366 4964.53 
6.28e-06 291.326 1.23685e+24 292.926 5002.17 
6.36e-06 290.613 1.22192e+24 293.964 4959.3 
6.44e-06 291.089 1.23644e+24 293.136 5004.11 
6.52e-06 290.569 1.2224e+24 293.921 4960.52 
6.6e-06 290.986 1.23203e+24 293.723 4996.23 
6.68e-06 290.691 1.22063e+24 294.066 4955.77 
6.76e-06 291.09 1.2333e+24 293.797 5002.66 
6.84e-06 290.934 1.22706e+24 294.21 4984.34 
6.92e-06 290.83 1.22392e+24 294.24 4972.08 
7e-06 290.892 1.23038e+24 293.791 4990.69 
7.08e-06 290.513 1.21951e+24 294.522 4958.9 
7.16e-06 291.135 1.23194e+24 294.073 5001.82 
7.24e-06 290.636 1.21635e+24 295.454 4961.69 
7.32e-06 290.88 1.22172e+24 295.309 4981.19 
7.4e-06 290.888 1.22139e+24 295.583 4984.47 
7.48e-06 290.599 1.21938e+24 295.668 4977.7 
7.56e-06 290.338 1.20845e+24 296.755 4951.19 
7.64e-06 290.92 1.22883e+24 295.15 5007.45 
7.72e-06 291.003 1.21827e+24 295.784 4975.09 
7.8e-06 290.67 1.21773e+24 295.943 4975.58 
7.88e-06 290.817 1.22e+24 296.046 4986.57 
7.96e-06 290.647 1.20927e+24 297.114 4960.57 
8.04e-06 290.934 1.2168e+24 296.849 4986.98 
8.12e-06 290.909 1.21032e+24 297.389 4969.46 
8.2e-06 290.728 1.21692e+24 296.925 4988.73 
8.28e-06 290.675 1.21031e+24 297.721 4974.95 
8.36e-06 290.898 1.21502e+24 297.571 4991.8 
8.44e-06 290.535 1.20601e+24 298.4 4968.57 
8.52e-06 290.873 1.21958e+24 298 5017.75 
8.6e-06 290.777 1.20162e+24 299.276 4965.03 
8.68e-06 290.709 1.19766e+24 299.669 4955.19 
8.76e-06 291.09 1.21314e+24 299.073 5009.25 
8.84e-06 290.658 1.19868e+24 300.332 4970.35 
8.92e-06 290.805 1.20866e+24 299.638 5000.18 
9e-06 290.746 1.20625e+24 300.183 4999.27 
9.08e-06 290.842 1.19936e+24 300.479 4975.61 
9.16e-06 290.744 1.20343e+24 300.536 4993.44 
9.24e-06 290.9 1.20432e+24 300.427 4995.32 
9.32e-06 290.732 1.20062e+24 300.801 4986.2 
9.4e-06 290.716 1.19875e+24 301.465 4989.41 
9.48e-06 291.017 1.21102e+24 300.455 5023.57 
9.56e-06 290.806 1.19892e+24 301.66 4993.35 
9.64e-06 291.166 1.20895e+24 300.858 5021.75 
9.72e-06 290.419 1.19669e+24 301.285 4977.84 
9.8e-06 292.318 1.23177e+24 299.176 5087.92 
9.88e-06 287.254 1.13571e+24 305.243 4786.24 
9.96e-06 292.969 1.46155e+24 284.742 5745.76 
