ITEM: TIMESTEP
1000000
ITEM: NUMBER OF CELLS
125
ITEM: BOX BOUNDS pp ss pp
0 0.0001
0 1e-05
0 0.0001
ITEM: CELLS yc f_rho[1] f_rho[2] f_state[1] f_state[2] 
4e-08 116.881 2.50853e+25 304.9 105599 
1.2e-07 116.91 2.4857e+25 308.656 105927 
2e-07 116.825 2.44999e+25 312.607 105742 
2.8e-07 116.741 2.44227e+25 314.275 105971 
3.6e-07 116.724 2.43254e+25 315.298 105892 
4.4e-07 116.759 2.43661e+25 315.54 106151 
5.2e-07 116.762 2.43346e+25 315.419 105973 
6e-07 116.792 2.43541e+25 315.242 105999 
6.8e-07 116.734 2.43877e+25 315.051 106080 
7.6e-07 116.821 2.43119e+25 315.611 105938 
8.4e-07 116.83 2.44354e+25 315.1 106304 
9.2e-07 116.839 2.4478e+25 314.799 106388 
1e-06 116.815 2.44904e+25 314.162 106227 
1.08e-06 116.727 2.45267e+25 313.392 106123 
1.16e-06 116.808 2.4428e+25 314.667 106126 
1.24e-06 116.842 2.44694e+25 314.133 106125 
1.32e-06 116.812 2.44763e+25 314.143 106159 
1.4e-06 116.965 2.46895e+25 312.656 106577 
1.48e-06 116.789 2.46272e+25 312.989 106421 
1.56e-06 116.871 2.45745e+25 313.571 106391 
1.64e-06 116.935 2.46498e+25 312.749 106437 
1.72e-06 116.859 2.45678e+25 314.255 106594 
1.8e-06 116.79 2.45056e+25 314.594 106439 
1.88e-06 116.866 2.46325e+25 313.836 106732 
1.96e-06 116.791 2.45725e+25 313.228 106266 
2.04e-06 116.995 2.47084e+25 312.895 106740 
2.12e-06 116.907 2.46089e+25 312.751 106261 
2.2e-06 116.916 2.46529e+25 312.724 106442 
2.28e-06 116.899 2.46832e+25 312.667 106553 
2.36e-06 116.849 2.46276e+25 312.598 106290 
2.44e-06 116.927 2.46858e+25 312.78 106603 
2.52e-06 116.989 2.47187e+25 312.188 106543 
2.6e-06 116.85 2.4586e+25 313.015 106252 
2.68e-06 116.953 2.47499e+25 311.288 106370 
2.76e-06 116.897 2.47084e+25 312.385 106566 
2.84e-06 116.964 2.47485e+25 311.734 106516 
2.92e-06 116.969 2.47445e+25 311.161 106303 
3e-06 117.019 2.48269e+25 310.943 106583 
3.08e-06 116.983 2.48423e+25 311.14 106716 
3.16e-06 116.83 2.47559e+25 311.8 106571 
3.24e-06 117.002 2.47573e+25 311.814 106582 
3.32e-06 117.033 2.4829e+25 310.864 106564 
3.4e-06 117.001 2.4875e+25 310.392 106600 
3.48e-06 116.86 2.47089e+25 311.369 106221 
3.56e-06 116.994 2.48142e+25 311.341 106664 
3.64e-06 116.933 2.48021e+25 310.904 106463 
3.72e-06 116.955 2.47988e+25 311.447 106634 
3.8e-06 117.008 2.47691e+25 311.501 106525 
3.88e-06 116.963 2.48241e+25 311.118 106631 
3.96e-06 116.858 2.47283e+25 311.353 106300 
4.04e-06 116.971 2.46815e+25 311.744 106231 
4.12e-06 116.98 2.46924e+25 311.774 106288 
4.2e-06 116.883 2.46209e+25 312.307 106162 
4.28e-06 116.845 2.46444e+25 312.54 106342 
4.36e-06 116.917 2.4718e+25 311.477 106297 
4.44e-06 116.941 2.48065e+25 311.188 106579 
4.52e-06 116.963 2.4798e+25 311.403 106616 
4.6e-06 116.911 2.47546e+25 311.984 106628 
4.68e-06 116.837 2.46667e+25 312.163 106310 
4.76e-06 116.947 2.47618e+25 311.724 106570 
4.84e-06 116.927 2.47122e+25 312.054 106469 
4.92e-06 116.97 2.46374e+25 312.329 106240 
5e-06 116.918 2.4741e+25 310.853 106183 
5.08e-06 116.968 2.47472e+25 311.654 106483 
5.16e-06 116.883 2.47086e+25 312.587 106635 
5.24e-06 116.906 2.46921e+25 312.935 106683 
5.32e-06 116.823 2.46429e+25 312.151 106204 
5.4e-06 116.91 2.47455e+25 312.136 106641 
5.48e-06 116.853 2.47228e+25 312.239 106578 
5.56e-06 116.858 2.46522e+25 313.298 106634 
5.64e-06 116.913 2.4653e+25 312.88 106495 
5.72e-06 116.822 2.46543e+25 313.024 106550 
5.8e-06 116.835 2.44463e+25 315.501 106487 
5.88e-06 116.917 2.46558e+25 313.973 106880 
5.96e-06 116.931 2.46347e+25 313.717 106701 
6.04e-06 116.833 2.45257e+25 314.136 106371 
6.12e-06 116.873 2.462e+25 313.773 106656 
6.2e-06 116.832 2.45063e+25 313.844 106188 
6.28e-06 116.802 2.44435e+25 314.33 106080 
6.36e-06 116.911 2.46415e+25 314.011 106831 
6.44e-06 116.8 2.45966e+25 313.476 106454 
6.52e-06 116.831 2.45571e+25 314.189 106525 
6.6e-06 116.791 2.45326e+25 314.21 106426 
6.68e-06 116.913 2.45567e+25 313.576 106315 
6.76e-06 116.835 2.44579e+25 314.788 106297 
6.84e-06 116.925 2.45935e+25 314.239 106700 
6.92e-06 116.804 2.45244e+25 314.248 106403 
7e-06 116.793 2.45101e+25 313.994 106255 
7.08e-06 116.773 2.44656e+25 314.266 106154 
7.16e-06 116.82 2.45477e+25 313.724 106327 
7.24e-06 116.927 2.46989e+25 312.425 106539 
7.32e-06 116.763 2.45051e+25 314.067 106258 
7.4e-06 116.903 2.45967e+25 313.761 106551 
7.48e-06 116.824 2.45725e+25 314.265 106617 
7.56e-06 116.843 2.45158e+25 313.7 106180 
7.64e-06 116.869 2.46783e+25 313.324 106756 
7.72e-06 116.841 2.45862e+25 313.644 106466 
7.8e-06 116.804 2.44079e+25 315.182 106212 
7.88e-06 116.871 2.45487e+25 313.667 106311 
7.96e-06 116.83 2.44416e+25 314.728 106206 
8.04e-06 116.857 2.4587e+25 313.787 106518 
8.12e-06 116.896 2.45865e+25 313.403 106386 
8.2e-06 116.918 2.44781e+25 314.976 106448 
8.28e-06 116.791 2.44909e+25 314.477 106335 
8.36e-06 116.827 2.44614e+25 315.951 106705 
8.44e-06 116.893 2.4515e+25 315.721 106861 
8.52e-06 116.842 2.44192e+25 316.259 106625 
8.6e-06 116.821 2.44171e+25 316.022 106535 
8.68e-06 116.865 2.4468e+25 314.785 106340 
8.76e-06 116.854 2.44637e+25 314.87 106350 
8.84e-06 116.855 2.43574e+25 315.992 106265 
8.92e-06 116.831 2.43775e+25 316.301 106457 
9e-06 116.907 2.45095e+25 315.152 106644 
9.08e-06 116.939 2.45445e+25 314.538 106588 
9.16e-06 116.861 2.45737e+25 314.139 106580 
9.24e-06 116.775 2.45284e+25 314.298 106437 
9.32e-06 116.928 2.4617e+25 314.205 106790 
9.4e-06 116.925 2.45542e+25 313.976 106440 
9.48e-06 116.905 2.45876e+25 313.73 106501 
9.56e-06 116.955 2.45844e+25 313.765 106499 
9.64e-06 116.956 2.46114e+25 313.942 106677 
9.72e-06 116.931 2.45729e+25 313.138 106237 
9.8e-06 116.935 2.47351e+25 312.381 106680 
9.88e-06 116.978 2.49928e+25 308.671 106511 
9.96e-06 117.11 2.53678e+25 304.679 106711 
