ITEM: TIMESTEP
1000000
ITEM: NUMBER OF CELLS
125
ITEM: BOX BOUNDS pp ss pp
0 0.0001
0 1e-05
0 0.0001
ITEM: CELLS yc f_rho[1] f_rho[2] f_state[1] f_state[2] 
4e-08 128.537 2.42159e+25 331.644 110881 
1.2e-07 128.812 2.45125e+25 328.913 111315 
2e-07 128.785 2.45877e+25 328.575 111541 
2.8e-07 128.809 2.45931e+25 328.602 111575 
3.6e-07 128.964 2.47324e+25 327.194 111726 
4.4e-07 128.76 2.45783e+25 327.653 111186 
5.2e-07 128.804 2.45876e+25 327.261 111095 
6e-07 128.724 2.45275e+25 327.345 110851 
6.8e-07 128.866 2.46565e+25 327.008 111320 
7.6e-07 128.836 2.46931e+25 326.904 111450 
8.4e-07 128.88 2.46766e+25 326.941 111388 
9.2e-07 128.811 2.466e+25 327.164 111389 
1e-06 128.821 2.46374e+25 327.175 111290 
1.08e-06 128.891 2.46597e+25 327.2 111400 
1.16e-06 128.813 2.46379e+25 328.301 111676 
1.24e-06 128.79 2.47125e+25 328.058 111931 
1.32e-06 128.766 2.45802e+25 327.956 111297 
1.4e-06 128.811 2.46057e+25 327.152 111139 
1.48e-06 128.875 2.45908e+25 328.089 111390 
1.56e-06 128.824 2.4628e+25 327.463 111346 
1.64e-06 128.804 2.46112e+25 327.344 111230 
1.72e-06 128.915 2.46959e+25 327.34 111611 
1.8e-06 128.848 2.46542e+25 327.409 111446 
1.88e-06 128.877 2.46633e+25 327.451 111502 
1.96e-06 128.751 2.46489e+25 327.805 111557 
2.04e-06 128.858 2.4699e+25 327.774 111773 
2.12e-06 128.837 2.46636e+25 327.787 111617 
2.2e-06 128.834 2.4589e+25 328.103 111387 
2.28e-06 128.715 2.45705e+25 327.422 111072 
2.36e-06 128.889 2.47384e+25 326.793 111616 
2.44e-06 128.778 2.46e+25 327.526 111241 
2.52e-06 128.935 2.46782e+25 326.959 111401 
2.6e-06 128.857 2.46903e+25 327.154 111522 
2.68e-06 128.869 2.47162e+25 327.189 111651 
2.76e-06 128.812 2.46659e+25 326.977 111352 
2.84e-06 128.869 2.47173e+25 327.405 111730 
2.92e-06 128.974 2.47686e+25 326.708 111723 
3e-06 128.795 2.46117e+25 326.753 111031 
3.08e-06 128.803 2.46537e+25 327.795 111575 
3.16e-06 128.878 2.46427e+25 328.276 111689 
3.24e-06 128.794 2.4605e+25 327.647 111304 
3.32e-06 128.898 2.4667e+25 327.615 111574 
3.4e-06 128.822 2.46334e+25 327.292 111312 
3.48e-06 128.834 2.46465e+25 327.876 111570 
3.56e-06 128.725 2.45165e+25 328.262 111112 
3.64e-06 128.862 2.4625e+25 327.729 111423 
3.72e-06 128.791 2.45731e+25 327.945 111262 
3.8e-06 128.891 2.46368e+25 328.044 111584 
3.88e-06 128.872 2.46435e+25 327.357 111380 
3.96e-06 128.878 2.46384e+25 327.746 111489 
4.04e-06 128.776 2.45731e+25 328.001 111281 
4.12e-06 128.826 2.45834e+25 328.679 111557 
4.2e-06 128.845 2.46041e+25 329.211 111832 
4.28e-06 128.871 2.45537e+25 328.904 111499 
4.36e-06 128.787 2.4586e+25 328.498 111507 
4.44e-06 128.803 2.45049e+25 329.28 111404 
4.52e-06 128.736 2.44222e+25 329.673 111161 
4.6e-06 128.902 2.46297e+25 328.792 111806 
4.68e-06 128.802 2.45003e+25 329.858 111579 
4.76e-06 128.788 2.4542e+25 329.516 111653 
4.84e-06 128.81 2.4516e+25 329.385 111490 
4.92e-06 128.869 2.45943e+25 329.478 111878 
5e-06 128.865 2.45628e+25 328.778 111497 
5.08e-06 128.781 2.44692e+25 329.087 111177 
5.16e-06 128.767 2.45532e+25 329.343 111645 
5.24e-06 128.801 2.45338e+25 329.689 111674 
5.32e-06 128.683 2.44197e+25 330.431 111405 
5.4e-06 128.913 2.45457e+25 329.879 111793 
5.48e-06 128.865 2.45795e+25 329.804 111921 
5.56e-06 128.766 2.44564e+25 330.215 111499 
5.64e-06 128.773 2.45179e+25 329.994 111705 
5.72e-06 128.837 2.45887e+25 329.021 111697 
5.8e-06 128.811 2.45283e+25 328.89 111378 
5.88e-06 128.967 2.46613e+25 328.408 111818 
5.96e-06 128.77 2.45566e+25 329.243 111627 
6.04e-06 128.834 2.45759e+25 329.148 111682 
6.12e-06 128.847 2.45722e+25 329.266 111706 
6.2e-06 128.857 2.45342e+25 328.594 111305 
6.28e-06 128.823 2.45361e+25 328.675 111341 
6.36e-06 128.86 2.45992e+25 328.785 111665 
6.44e-06 128.864 2.45921e+25 329.313 111812 
6.52e-06 128.8 2.45567e+25 329.162 111600 
6.6e-06 128.839 2.4605e+25 328.753 111680 
6.68e-06 128.757 2.4493e+25 329.282 111351 
6.76e-06 128.899 2.46273e+25 328.295 111626 
6.84e-06 128.771 2.45452e+25 328.199 111221 
6.92e-06 128.851 2.46181e+25 328.38 111613 
7e-06 128.896 2.46558e+25 328.097 111687 
7.08e-06 128.973 2.47112e+25 327.458 111720 
7.16e-06 128.834 2.45692e+25 327.787 111190 
7.24e-06 128.837 2.47237e+25 327.369 111747 
7.32e-06 128.888 2.46976e+25 326.973 111493 
7.4e-06 128.835 2.46427e+25 327.415 111396 
7.48e-06 128.801 2.45581e+25 327.465 111031 
7.56e-06 128.84 2.46014e+25 327.659 111292 
7.64e-06 128.784 2.45759e+25 327.927 111268 
7.72e-06 128.854 2.46427e+25 327.775 111518 
7.8e-06 128.928 2.47651e+25 327.251 111893 
7.88e-06 128.956 2.47168e+25 327.277 111684 
7.96e-06 128.877 2.4624e+25 327.35 111289 
8.04e-06 128.893 2.47152e+25 326.914 111553 
8.12e-06 128.82 2.46332e+25 327.222 111288 
8.2e-06 128.887 2.46392e+25 328.126 111622 
8.28e-06 128.873 2.46758e+25 328.295 111846 
8.36e-06 128.857 2.47047e+25 327.363 111659 
8.44e-06 128.879 2.46111e+25 327.575 111308 
8.52e-06 128.934 2.47406e+25 327.353 111817 
8.6e-06 128.829 2.46212e+25 326.82 111096 
8.68e-06 128.971 2.48086e+25 326.172 111721 
8.76e-06 128.902 2.47908e+25 326.505 111754 
8.84e-06 128.876 2.47553e+25 326.272 111515 
8.92e-06 128.898 2.47354e+25 326.301 111435 
9e-06 128.853 2.47026e+25 326.731 111434 
9.08e-06 128.88 2.47046e+25 326.72 111439 
9.16e-06 128.877 2.46504e+25 327.211 111361 
9.24e-06 128.759 2.4569e+25 327.336 111036 
9.32e-06 128.808 2.46157e+25 327.789 111401 
9.4e-06 128.868 2.46404e+25 327.728 111492 
9.48e-06 128.934 2.47184e+25 327.767 111858 
9.56e-06 128.918 2.4716e+25 327.675 111816 
9.64e-06 128.803 2.46404e+25 327.743 111498 
9.72e-06 128.767 2.45897e+25 328.016 111360 
9.8e-06 128.902 2.47023e+25 327.822 111804 
9.88e-06 128.779 2.44486e+25 329.904 111359 
9.96e-06 128.612 2.42576e+25 331.256 110941 
