ITEM: TIMESTEP
1000000
ITEM: NUMBER OF CELLS
125
ITEM: BOX BOUNDS pp ss pp
0 0.0001
0 1e-05
0 0.0001
ITEM: CELLS yc f_rho[1] f_rho[2] f_state[1] f_state[2] 
4e-08 126.715 2.45712e+25 300.807 102046 
1.2e-07 126.77 2.44796e+25 301.303 101833 
2e-07 126.882 2.46027e+25 301.36 102365 
2.8e-07 126.728 2.45081e+25 301.791 102117 
3.6e-07 126.75 2.44563e+25 302.741 102222 
4.4e-07 126.831 2.44961e+25 301.823 102078 
5.2e-07 126.669 2.4408e+25 302.911 102077 
6e-07 126.945 2.46258e+25 301.734 102588 
6.8e-07 126.741 2.44449e+25 302.775 102186 
7.6e-07 126.827 2.45485e+25 302.221 102431 
8.4e-07 126.887 2.46032e+25 301.457 102400 
9.2e-07 126.782 2.45901e+25 301.22 102265 
1e-06 126.76 2.45184e+25 301.717 102135 
1.08e-06 126.803 2.44987e+25 302.151 102200 
1.16e-06 126.872 2.46092e+25 301.584 102468 
1.24e-06 126.95 2.46507e+25 300.743 102355 
1.32e-06 127.027 2.4801e+25 299.804 102657 
1.4e-06 126.964 2.47555e+25 299.654 102418 
1.48e-06 126.967 2.48243e+25 299.185 102542 
1.56e-06 126.859 2.47066e+25 299.462 102150 
1.64e-06 127.092 2.481e+25 299.164 102475 
1.72e-06 126.908 2.46667e+25 299.983 102163 
1.8e-06 126.988 2.4744e+25 299.846 102436 
1.88e-06 126.876 2.46894e+25 300.508 102435 
1.96e-06 126.796 2.4604e+25 300.294 102008 
2.04e-06 127.04 2.47917e+25 299.747 102599 
2.12e-06 126.896 2.46965e+25 300.38 102421 
2.2e-06 126.873 2.461e+25 301.098 102306 
2.28e-06 127.003 2.46642e+25 300.596 102361 
2.36e-06 126.864 2.47052e+25 300.367 102453 
2.44e-06 126.96 2.47633e+25 299.852 102518 
2.52e-06 126.891 2.46623e+25 300.455 102305 
2.6e-06 126.881 2.46787e+25 300.649 102439 
2.68e-06 126.963 2.4641e+25 301.299 102503 
2.76e-06 127.019 2.47032e+25 300.096 102352 
2.84e-06 126.902 2.46538e+25 300.322 102224 
2.92e-06 126.918 2.47668e+25 299.529 102421 
3e-06 126.91 2.46783e+25 299.752 102132 
3.08e-06 126.938 2.47323e+25 299.688 102333 
3.16e-06 126.968 2.46637e+25 300.199 102224 
3.24e-06 127.002 2.47725e+25 299.541 102449 
3.32e-06 126.964 2.47142e+25 300.483 102530 
3.4e-06 126.913 2.46885e+25 299.859 102210 
3.48e-06 127.034 2.48367e+25 299.408 102669 
3.56e-06 126.996 2.47496e+25 299.785 102438 
3.64e-06 126.991 2.47532e+25 299.511 102360 
3.72e-06 126.995 2.48056e+25 299.183 102464 
3.8e-06 127.004 2.47387e+25 299.593 102327 
3.88e-06 126.923 2.46315e+25 300.644 102241 
3.96e-06 126.99 2.47353e+25 299.902 102419 
4.04e-06 127.022 2.48386e+25 299.252 102624 
4.12e-06 126.885 2.46489e+25 300.791 102364 
4.2e-06 127.104 2.4846e+25 299.44 102719 
4.28e-06 126.961 2.47311e+25 299.826 102376 
4.36e-06 126.872 2.46918e+25 300.017 102278 
4.44e-06 126.87 2.46576e+25 300.049 102147 
4.52e-06 126.92 2.47346e+25 300.223 102526 
4.6e-06 126.995 2.47476e+25 299.496 102331 
4.68e-06 126.895 2.46232e+25 299.996 101986 
4.76e-06 126.939 2.4718e+25 300.373 102508 
4.84e-06 126.913 2.46496e+25 300.384 102228 
4.92e-06 126.803 2.46424e+25 300.219 102142 
5e-06 126.78 2.45904e+25 300.76 102110 
5.08e-06 126.865 2.47281e+25 300.183 102485 
5.16e-06 127.005 2.46432e+25 300.939 102390 
5.24e-06 126.972 2.47236e+25 300.375 102532 
5.32e-06 126.934 2.47352e+25 300.598 102656 
5.4e-06 126.958 2.46782e+25 300.756 102473 
5.48e-06 126.9 2.46328e+25 300.747 102282 
5.56e-06 126.83 2.46148e+25 300.191 102018 
5.64e-06 126.875 2.46202e+25 300.25 102061 
5.72e-06 127.003 2.47237e+25 299.827 102345 
5.8e-06 126.967 2.46859e+25 300.652 102470 
5.88e-06 126.846 2.45771e+25 300.931 102113 
5.96e-06 126.903 2.46532e+25 299.935 102090 
6.04e-06 126.84 2.46889e+25 300.745 102514 
6.12e-06 126.8 2.46323e+25 300.925 102340 
6.2e-06 126.931 2.46741e+25 301.104 102575 
6.28e-06 126.985 2.46275e+25 300.541 102190 
6.36e-06 126.7 2.45266e+25 301.132 101971 
6.44e-06 126.934 2.45926e+25 301.403 102338 
6.52e-06 126.858 2.46207e+25 301.663 102543 
6.6e-06 126.805 2.4549e+25 302.19 102423 
6.68e-06 126.861 2.45718e+25 302.237 102534 
6.76e-06 126.779 2.45677e+25 301.72 102341 
6.84e-06 126.91 2.46514e+25 301.666 102672 
6.92e-06 126.764 2.44607e+25 302.887 102290 
7e-06 126.896 2.45668e+25 302.506 102604 
7.08e-06 126.75 2.44858e+25 302.68 102325 
7.16e-06 126.887 2.4541e+25 302.458 102481 
7.24e-06 126.784 2.45126e+25 303.002 102546 
7.32e-06 126.846 2.44693e+25 302.448 102177 
7.4e-06 126.845 2.44747e+25 302.66 102272 
7.48e-06 126.907 2.45633e+25 302.248 102502 
7.56e-06 126.767 2.45682e+25 302.875 102735 
7.64e-06 126.786 2.44938e+25 302.069 102152 
7.72e-06 126.79 2.45616e+25 301.972 102402 
7.8e-06 126.762 2.44785e+25 302.716 102306 
7.88e-06 126.796 2.44914e+25 302.715 102360 
7.96e-06 126.744 2.44953e+25 302.71 102375 
8.04e-06 126.645 2.43697e+25 303.143 101995 
8.12e-06 126.77 2.44608e+25 302.809 102264 
8.2e-06 126.819 2.44802e+25 303.247 102493 
8.28e-06 126.87 2.45753e+25 301.715 102372 
8.36e-06 126.766 2.45453e+25 302.078 102369 
8.44e-06 126.778 2.44931e+25 302.613 102333 
8.52e-06 126.768 2.44802e+25 302.233 102151 
8.6e-06 126.74 2.44839e+25 302.62 102297 
8.68e-06 126.755 2.44555e+25 302.991 102303 
8.76e-06 126.751 2.44606e+25 302.928 102303 
8.84e-06 126.741 2.44091e+25 303.248 102196 
8.92e-06 126.739 2.44733e+25 302.898 102346 
9e-06 126.852 2.44982e+25 302.567 102339 
9.08e-06 126.79 2.45141e+25 302.209 102284 
9.16e-06 126.711 2.43925e+25 302.856 101994 
9.24e-06 126.867 2.44675e+25 302.683 102249 
9.32e-06 126.641 2.4444e+25 302.924 102233 
9.4e-06 126.746 2.44921e+25 302.674 102349 
9.48e-06 126.817 2.45382e+25 301.783 102240 
9.56e-06 126.826 2.4584e+25 302.082 102532 
9.64e-06 126.965 2.4575e+25 301.745 102381 
9.72e-06 126.86 2.46508e+25 300.539 102286 
9.8e-06 126.914 2.46197e+25 300.698 102211 
9.88e-06 126.909 2.46622e+25 299.613 102018 
9.96e-06 126.8 2.46693e+25 300.453 102334 
