ITEM: TIMESTEP
1000000
ITEM: NUMBER OF CELLS
125
ITEM: BOX BOUNDS pp ss pp
0 0.0001
0 1e-05
0 0.0001
ITEM: CELLS yc f_vel[1] f_vel[2] f_vel[3] f_mom[1] f_mom[2] f_mom[3] f_mom[4] f_q[1] f_q[2] f_q[3] 
4e-08 -0.0571388 0.00346446 -4.2619e-09 104837 105126 105002 -33.7428 43314.5 34059.7 -13836.4 
1.2e-07 0.268465 0.0109152 9.5924e-10 105246 105252 105269 9.76397 -11509.2 -11157 33574.4 
2e-07 0.528985 -0.00432311 -9.38806e-09 105315 105175 105204 -1.72041 -92703.1 24220.9 7601.24 
2.8e-07 -0.420636 0.0333896 -8.70443e-10 105120 105195 105027 -56.055 71532.6 -13870.9 6633.89 
3.6e-07 -0.44099 -0.00154527 5.59996e-09 105291 105308 105337 -9.62758 33794.3 -23134.7 43150.1 
4.4e-07 -0.0169069 0.00370493 -9.35412e-09 105349 105132 104954 -43.5773 23919.5 14847.6 -79266.8 
5.2e-07 0.215453 0.0237508 -4.07789e-09 104777 105221 105004 28.8966 -64519.9 25959.1 -50965.9 
6e-07 -1.25675 -0.0368953 2.84815e-09 104893 105179 104792 -7.12061 85488.9 1613 98739.8 
6.8e-07 -0.257582 -0.0105323 1.00702e-08 104850 105176 105058 -50.7371 -13572.2 804.249 49172.9 
7.6e-07 -0.532843 -0.0112071 1.2708e-09 104777 105169 104994 -110.334 59824.4 -6507.81 54492 
8.4e-07 -0.145231 -0.00964744 -1.18336e-08 104898 104966 105176 42.4721 -16428 34950.3 30791.4 
9.2e-07 0.195866 -0.00866612 1.95716e-08 105046 105150 105035 -86.7374 12465.4 -4838.7 51257.7 
1e-06 -0.448801 -0.03637 -1.0931e-08 105241 105012 105343 -52.2213 58590 27667.5 26677.7 
1.08e-06 0.0915016 -0.0221724 8.12478e-10 105245 105271 105242 -83.6422 19346.7 22985.2 86928 
1.16e-06 0.099652 -0.0253351 1.17254e-08 105086 105207 105274 20.3633 38559.5 42917.1 2159.68 
1.24e-06 0.400184 -0.0308044 3.0889e-09 105155 105207 105233 -96.8833 10415.8 15330.2 -46224.4 
1.32e-06 1.22983 -0.0342726 -4.80823e-10 105187 105248 105373 -135.261 20486.3 26403.1 -21836.8 
1.4e-06 1.72387 -0.0428013 1.65462e-09 105230 105173 105232 -43.0544 -12383.3 -11641.4 -40310 
1.48e-06 2.25648 -0.0205416 1.43753e-08 105206 105216 105303 -78.7361 -24028.1 13419 -106272 
1.56e-06 2.69913 -0.0552863 5.46331e-10 105129 105128 105246 -119.284 34157.5 14233 -70680.9 
1.64e-06 2.36443 -0.0545455 -1.63232e-08 105056 105061 104849 1.7375 5324.47 -10413.9 27972.6 
1.72e-06 3.42838 -0.0347316 5.52887e-09 105045 105127 105042 -127.707 -29748.9 25416.2 -62967.7 
1.8e-06 3.57929 -0.0469557 1.1617e-09 105107 105125 105006 -68.591 -32394.5 -4555.56 45513 
1.88e-06 3.57424 -0.049784 -4.34028e-10 105171 105198 105115 -108.594 8108.89 -21068.5 -80298.6 
1.96e-06 4.61486 -0.0442911 8.60612e-09 105117 105208 105183 -62.4971 -28070.2 -4495.05 -36328 
2.04e-06 4.57592 -0.0339096 -3.47335e-09 105136 105070 104891 -83.0091 27891.1 -14735.7 -30795.9 
2.12e-06 5.97143 -0.0799776 3.09701e-09 105253 105172 105375 -64.7429 -75547 34059.5 -3209.25 
2.2e-06 5.13222 -0.081979 -3.62655e-09 105238 105164 105118 -29.9107 6451.3 -13227.6 79026.1 
2.28e-06 3.76403 -0.0427488 -4.65639e-09 105210 105136 105067 3.12097 55640.3 16554 16782.9 
2.36e-06 4.37801 -0.0810671 9.34347e-09 104985 105115 105075 -85.4742 13839.2 -14910.7 -25741.2 
2.44e-06 4.76354 -0.063495 7.2588e-09 104783 105152 104765 -68.0642 36539.9 5185.74 67349.3 
2.52e-06 6.098 -0.055119 9.86629e-09 105082 105103 105146 -69.7597 15996.2 18413.9 22063.8 
2.6e-06 6.62517 -0.0729035 9.09911e-10 104967 105101 104917 31.0548 -42726.1 -18496.7 -24116.5 
2.68e-06 5.68494 -0.058504 8.8922e-10 105192 105172 105109 44.3132 -26014.2 -7480.33 35013.2 
2.76e-06 5.73698 -0.0631777 5.54596e-09 104953 105222 105137 -63.921 -20786.7 5515.94 -17232.1 
2.84e-06 5.70188 -0.0711663 5.15454e-09 105450 105405 105758 -59.8844 2212.7 24286.2 -47453.8 
2.92e-06 6.10104 -0.0835498 -9.39213e-09 105268 105248 105670 -6.60797 -10999.7 58221.7 -56653.8 
3e-06 6.51758 -0.0382458 1.29433e-09 105044 105133 105147 -98.7526 -47953.5 54045.1 39283.4 
3.08e-06 6.24706 -0.0818358 -7.70468e-09 105020 105129 104738 -122.579 -36483.6 13556.8 37018.7 
3.16e-06 6.0737 -0.0399049 3.55365e-09 105347 105299 105504 -125.541 -35645.9 33004.4 -38551.1 
3.24e-06 5.80717 -0.0619278 9.20263e-09 105352 105154 105361 -29.57 -35390.9 33699 -71586.4 
3.32e-06 5.76826 -0.0481654 -7.65099e-10 105441 105335 105289 -101.031 30711.4 1637.44 -53429.4 
3.4e-06 6.97224 -0.0407875 5.73068e-09 104838 105151 104912 -151.356 -660.149 7101.09 63331.6 
3.48e-06 7.78853 -0.0299122 1.09543e-08 105447 105290 105384 42.6616 -9895.04 48529.3 24605.5 
3.56e-06 7.9798 -0.0509845 -8.94928e-09 105346 105297 105471 24.4322 25013.5 22279.8 -19129.9 
3.64e-06 8.07601 -0.0416308 -4.0257e-09 105470 105370 105256 28.3799 50946.9 -8633.23 19622.7 
3.72e-06 6.71298 -0.0317744 -8.99421e-09 105411 105216 105118 -67.8142 73925.9 11679.1 44289.5 
3.8e-06 7.69863 -0.0399913 6.07735e-10 105113 105242 105196 -62.6361 -49638.2 -1484.27 48733.1 
3.88e-06 8.2658 -0.059537 1.62877e-09 105114 105244 105249 -6.25213 13863.1 11851.1 71585.7 
3.96e-06 7.87869 -0.00594132 -8.25642e-09 105556 105388 105646 -41.0039 38006.8 -10166.9 -67889.3 
4.04e-06 8.69494 -0.0434086 1.15423e-09 105464 105270 104940 -116.575 34865.6 -2329.47 -60809.4 
4.12e-06 8.00472 -0.0376479 -2.53864e-10 105302 105298 104908 -45.0546 98244.9 3479.52 13971.2 
4.2e-06 9.08746 -0.0559384 4.16444e-09 105183 105285 104912 -134.426 -20491.3 5104.19 -26032.5 
4.28e-06 8.78647 -0.0298761 -1.38907e-08 105183 105281 105327 -119.23 7207.62 46174.5 32266 
4.36e-06 8.75951 -0.0341375 8.01402e-10 105353 105249 104906 60.0988 33282.1 6569.23 97707.4 
4.44e-06 9.7663 -0.0263039 -5.39487e-10 105272 105275 105321 3.0796 -24672.5 -471.498 89498.9 
4.52e-06 10.4965 -0.043548 5.56769e-09 105462 105329 105246 -6.01979 -87513.5 -21072.2 64113.7 
4.6e-06 9.95001 -0.0348258 -7.22202e-09 105447 105237 105386 3.13019 19738 11448.2 12335.9 
4.68e-06 9.29236 -0.0461938 -1.27094e-09 105737 105292 105205 -35.8791 -27501.5 23848 77547.6 
4.76e-06 8.73312 -0.0546136 5.4375e-09 105437 105243 105418 -117.519 35783.5 -11671.9 -40977 
4.84e-06 9.64213 -0.033821 -2.49933e-09 105179 105295 104916 -100.574 -40165.9 31912.7 24742.6 
4.92e-06 9.12947 -0.0542696 7.72637e-09 104902 105201 104848 30.3738 -10861.1 2159.84 -56097 
5e-06 8.80765 -0.0479437 -4.74819e-09 105383 105231 105275 34.116 -15742.7 16196.3 60483.7 
5.08e-06 9.22657 -0.0512106 -5.62302e-09 105121 105127 104745 23.0849 14838.8 13607 8477.37 
5.16e-06 8.58826 -0.0526084 5.60586e-09 105073 105269 105230 -107.854 -21590.8 -1079.04 -35725.6 
5.24e-06 8.67715 -0.0623216 -5.27669e-09 105128 105212 105231 59.7509 -73678 8409.53 62010.9 
5.32e-06 8.67353 -0.0610065 -6.89968e-09 105105 105104 105084 -46.748 15821.6 -29916.2 4303.82 
5.4e-06 8.70028 -0.0521221 -3.90764e-10 104809 105256 104725 -101.992 -22661.8 2311.66 -11172.5 
5.48e-06 8.24825 -0.067032 -2.23473e-09 105222 105146 105046 -3.55114 12507.4 5569.37 -2429.83 
5.56e-06 7.71407 -0.0298406 -6.69253e-09 105295 105231 105305 -132.698 58859.3 -23672.3 4390.82 
5.64e-06 8.31904 -0.0455106 7.22484e-09 105402 105183 105448 -41.3135 75234.1 -19047.5 46126.7 
5.72e-06 8.39917 -0.0502585 1.65711e-09 105166 105068 105158 -3.52741 38364.8 27396 -7984.18 
5.8e-06 9.09146 -0.0330387 -2.79315e-09 105018 105201 105043 -37.4824 -26695.6 -25591.7 -8514.37 
5.88e-06 8.76672 -0.0565985 -4.02403e-09 104788 105073 105146 -47.9943 -33506.6 -13172.8 31613.4 
5.96e-06 9.51697 -0.00842888 8.21157e-10 105058 105224 104894 -49.699 -53603.5 -29694.9 -20233 
6.04e-06 9.11812 -0.0223615 -3.41889e-10 105266 105091 105422 -47.0534 29955.8 -26286.8 -57579 
6.12e-06 8.98868 -0.05287 6.16966e-09 105235 105218 105200 -25.2256 11500.3 -40013.9 17209.9 
6.2e-06 8.58024 -0.00639422 -3.17137e-09 105380 105161 105302 -70.6358 -8301.03 -25009.5 6185.53 
6.28e-06 8.59729 -0.0280932 2.37379e-09 105198 105214 105172 -55.0236 -15816.3 -17116 -11905.5 
6.36e-06 9.11738 -0.00665354 7.59009e-09 105357 105220 105088 -92.5808 -39104.2 -3768.1 37347 
6.44e-06 9.93942 -0.0502936 -5.77775e-09 105287 105131 105011 -21.5607 -83857.5 10076 66672.2 
6.52e-06 9.05872 -0.0196422 2.82294e-09 105730 105275 105716 -76.5966 45318 -719.517 -1097.96 
6.6e-06 9.67956 -0.0316605 -2.79336e-09 105517 105035 105345 49.641 -87337.6 1147.06 2631.09 
6.68e-06 9.68275 -0.0385497 -6.31143e-09 105186 105199 105059 -44.535 2214.03 -15884.4 74754.6 
6.76e-06 9.71679 -0.00968865 6.11726e-09 105325 105233 105133 -87.1677 42354.4 -21174.5 -92394.1 
6.84e-06 10.5926 -0.0280514 1.94455e-09 105163 105107 105393 -30.6958 -36012.4 -18411.3 -45478.5 
6.92e-06 10.1396 -0.0387256 2.61666e-09 105636 105255 105310 69.2606 -32572.7 -40450.3 -7448.61 
7e-06 10.4093 0.00355453 6.42841e-09 105152 105137 105123 -27.3353 -23077.7 20763.6 27874.9 
7.08e-06 10.9553 -0.0363003 1.43896e-09 105067 105160 105242 -27.3147 -38272.7 -18406.4 50297.7 
7.16e-06 10.8733 -0.0196699 -9.34942e-09 104935 105143 104831 -102.1 -62552 7162.61 16349.8 
7.24e-06 10.2809 -0.0378549 4.41063e-09 105551 105323 104924 -114.928 4249.62 26740.7 -801.523 
7.32e-06 10.1811 -0.0261884 2.92322e-09 105283 105102 105064 -92.1855 2143.45 -24505 64927.3 
7.4e-06 10.3274 -0.0272288 1.06185e-08 105177 105085 105114 -167.474 48619.2 -55828.3 -66508.2 
7.48e-06 11.3257 -0.0268863 1.88423e-09 104990 105088 104795 -85.3184 -31355.5 -40099.4 -73451.7 
7.56e-06 11.0929 -0.0257728 4.44367e-09 105069 105121 105293 36.1671 31084.7 -14511.6 -45547.6 
7.64e-06 11.5389 -0.0184291 1.82343e-09 105264 105135 104971 -13.9363 -41171.8 -4518.76 -32596.1 
7.72e-06 11.7122 -0.035105 -1.43619e-10 105409 105138 105181 -85.2568 -2368.57 18451.6 -34230.3 
7.8e-06 12.3274 -0.0167684 -1.08389e-09 105005 105215 105350 -96.52 35030.3 -6740.73 13305 
7.88e-06 12.26 -0.0279423 -2.00099e-09 105310 105249 104994 -135.263 50662.5 -11987.9 43338 
7.96e-06 11.6894 -0.0237626 -1.02004e-09 105420 105146 104932 -124.541 76921.7 -15885.3 -43254.8 
8.04e-06 13.1606 -0.0321078 1.81379e-09 105007 105140 104801 -261.764 -140175 -31109.1 -109471 
8.12e-06 12.8262 -0.0139567 9.52754e-09 105454 105281 105335 -93.7059 -23198.9 6268.76 3002.27 
8.2e-06 13.6146 -0.0335289 -1.75357e-10 105053 105069 105064 -154.583 -1625.94 14029.6 -8128.47 
8.28e-06 13.1999 -0.0364556 1.65464e-09 105111 105133 104914 54.4451 39843.9 -14948.5 -45894.8 
8.36e-06 13.447 -0.0123915 -4.58711e-09 105428 105240 105116 -67.8438 53046.2 -11916.6 13304.6 
8.44e-06 13.7752 -0.0376771 7.73163e-09 105113 105175 104976 -116.708 36139.3 -42747.5 18264.5 
8.52e-06 14.6418 -0.0125693 -8.66538e-10 104771 105262 105211 -50.3183 -17945.5 -25153.2 -21927.9 
8.6e-06 15.0547 -0.0212635 6.35866e-09 105166 105147 104806 -44.9102 -35810 -7777.28 41775.4 
8.68e-06 14.519 -0.0332702 9.45142e-09 105254 105155 105323 -144.347 63048.3 -13214.2 -29062 
8.76e-06 14.7541 -0.0357127 -2.89192e-09 105015 104970 104934 -136.287 -10871.2 -400.159 6521.65 
8.84e-06 15.7366 -0.0225669 4.96657e-09 105093 105161 105182 -62.057 -29023.3 31436.2 4736.75 
8.92e-06 16.0494 -0.0369824 8.13161e-09 105408 105177 105260 -1.61448 2673.79 15186.3 -53482.6 
9e-06 15.7879 -0.00738726 -3.90047e-09 105091 105138 105030 -41.2011 -22796.1 -266.398 -49263.5 
9.08e-06 16.3376 -0.0419627 8.72359e-09 104993 105139 104852 -85.7011 -8007.15 2831.37 14627.2 
9.16e-06 16.7043 -0.0123375 5.2477e-09 105191 105253 104970 -46.6683 32855 -20544.9 -48405 
9.24e-06 17.8055 -0.0424583 4.41179e-09 105374 105352 105589 -173.983 -71642.4 -12325.5 -16288.8 
9.32e-06 18.7313 -0.0023481 5.5903e-09 105121 105175 105013 -7.93797 -86311.6 -26236.9 55830 
9.4e-06 18.4243 -0.00876323 4.37711e-10 105237 105178 105293 -111.246 -6891.17 -2446.56 26588.5 
9.48e-06 18.6206 -0.015863 1.73256e-10 105477 105133 105554 -53.514 15341.2 -22406.7 25064.2 
9.56e-06 18.9719 -0.0109596 1.49917e-09 105487 105191 105343 -96.1192 -39863 -15611.5 39638.8 
9.64e-06 19.4572 0.0128989 2.10666e-09 105163 105073 105104 -111.616 32973.9 -7674.29 -31974.2 
9.72e-06 19.7928 -0.0374411 1.51525e-09 105346 105218 105467 -41.4426 100661 530.109 -15941.8 
9.8e-06 20.2732 0.0015798 6.09716e-09 105016 105076 105195 -48.1429 -6334.5 -33376.2 -423.887 
9.88e-06 20.5869 -0.0206803 3.58573e-09 105170 105246 105445 -50.7718 -18353.2 -6944.51 -45670.9 
9.96e-06 21.3512 0.0202913 9.15819e-10 104636 105142 104554 -118.867 9357.25 -24997.8 -66872.7 
