ITEM: TIMESTEP
1000000
ITEM: NUMBER OF CELLS
125
ITEM: BOX BOUNDS pp ss pp
0 0.0001
0 1e-05
0 0.0001
ITEM: CELLS yc f_vel[1] f_vel[2] f_vel[3] f_mom[1] f_mom[2] f_mom[3] f_mom[4] f_q[1] f_q[2] f_q[3] 
4e-08 1.37014 -0.00401267 9.63487e-09 6102.16 5019.57 6075.06 -33.4992 -2.97818 -1383.92 -443.494 
1.2e-07 1.83139 0.00350909 2.74524e-09 4693.15 4995.79 4680.44 -33.0759 -790.237 -189.677 -301.071 
2e-07 2.79393 0.0152296 -6.788e-09 5127.1 5008.52 5113.23 -34.5392 -959.357 -404.062 -1661.08 
2.8e-07 2.42938 0.011137 -7.6865e-09 4947.78 5005.19 4933.73 -34.2106 3880.29 394.453 -2502.29 
3.6e-07 2.43984 -0.00124097 3.48145e-09 5048.81 5008.64 5031.72 -33.5121 3253.44 125.879 3717.03 
4.4e-07 2.41304 0.00717909 1.44627e-09 5000.3 5007 4987.95 -33.3579 968.352 359.675 6893.68 
5.2e-07 3.28086 0.0124721 -6.69596e-09 4998.31 5007.75 4991.04 -35.2812 -2519.03 -212.585 5541.05 
6e-07 2.81728 0.0170582 -8.69391e-09 4989 5007.71 4980.35 -33.6767 2563.25 652.041 -1453.2 
6.8e-07 2.87048 0.0158806 -1.16326e-08 4979.65 5007.74 4974.29 -34.2831 505.649 357.771 3141.66 
7.6e-07 2.97533 0.0207252 -6.66784e-09 4973.02 5007.63 4971.29 -34.1802 1270.07 -22.5079 1996.56 
8.4e-07 3.12934 0.0174663 -8.43718e-09 4999.08 5008.99 4992.02 -34.0585 1422.95 507.945 5373.17 
9.2e-07 3.14622 0.00815855 -1.13025e-08 4941.34 5007.83 4915.54 -34.2091 -927.266 206.47 3174.29 
1e-06 2.47155 0.0211229 -8.67136e-09 4977.58 5008.95 4970.03 -35.1774 953.448 203.197 2309.34 
1.08e-06 2.9671 0.00906144 -4.19532e-09 4983.28 5008.76 4974.78 -33.2395 1898.84 304.488 844.638 
1.16e-06 3.41522 0.0185361 -4.27309e-09 4974.34 5008.28 4979.15 -33.9211 -3791.75 261.019 2622.68 
1.24e-06 3.22831 0.00282544 -4.27257e-09 4956.99 5009.06 4957.84 -34.8237 -1261.88 408.654 -2139.73 
1.32e-06 3.55809 0.0216729 -1.49273e-09 4986.52 5009.42 4968.09 -34.1342 938.102 370.364 1928.19 
1.4e-06 3.80552 0.00494364 -1.50308e-09 4996.69 5009.67 4987.89 -33.9232 4507.39 399.01 -1066.28 
1.48e-06 3.57106 0.0196898 -5.82737e-09 4951.85 5009.48 4944.83 -35.2121 5070.42 384.977 3035.31 
1.56e-06 3.76622 0.0252495 -2.36517e-09 4997.56 5010.3 4988.85 -34.8445 5529.31 -582.599 1245.09 
1.64e-06 4.24798 0.0185573 -2.50173e-09 4937.14 5008.68 4938.44 -33.9748 522.304 340.112 -533.311 
1.72e-06 4.26213 0.00765233 -8.00382e-09 4978.76 5010.01 5002.09 -34.4174 2016.25 71.7527 1983.77 
1.8e-06 4.46319 0.0232048 -5.52595e-09 4931.86 5007.92 4917.84 -33.8052 2104.43 300.574 -881.875 
1.88e-06 4.2563 0.0182793 -2.64486e-09 4969.67 5010.71 4969.15 -34.0984 1234.18 155.74 -2785.2 
1.96e-06 4.11385 0.0171616 -6.22432e-09 4950.8 5008.03 4942.64 -35.0067 2302.85 73.451 -5592.2 
2.04e-06 4.89906 0.00732096 -3.81443e-09 4960.1 5009.32 4947.82 -33.6036 1956.27 205.873 -2489.72 
2.12e-06 4.99402 0.0153686 -3.99826e-09 4995.7 5009.77 4984.7 -34.9872 2924.56 92.8306 -2530.51 
2.2e-06 5.0742 0.001821 -4.60233e-09 4931 5007.25 4923.23 -34.1845 -1075.8 406.406 -3231.71 
2.28e-06 5.31491 0.0142281 -6.40373e-09 4978.01 5009.69 4986.59 -34.1589 642.354 89.641 206.955 
2.36e-06 5.79793 0.00933762 -2.41939e-09 4934.55 5007.55 4926.8 -34.3035 1333.13 184.158 2637.73 
2.44e-06 5.78462 -0.00830954 -6.32856e-10 4960.96 5009.83 4975.79 -33.9177 2768.29 -54.7369 4447 
2.52e-06 5.25905 0.0206685 -6.45903e-09 4941.94 5009.2 4947.55 -35.2671 2953.84 -233.992 2242.88 
2.6e-06 5.92425 0.00182326 -3.95068e-09 4955.64 5008.92 4947.71 -34.0407 1502.73 270.869 1757.82 
2.68e-06 5.77029 0.00251146 -8.19051e-09 4948.33 5008.79 4938.01 -35.0913 1671.87 -188.383 3501.26 
2.76e-06 5.64965 0.02193 -1.3165e-09 4995.9 5011.26 4996.94 -33.7896 2344.72 263.643 -2098.2 
2.84e-06 5.97943 -0.0116744 -5.11259e-09 4930.08 5008.88 4945 -34.0841 684.146 -119.794 1833.1 
2.92e-06 6.27825 0.02048 -8.49704e-09 4950.78 5008.14 4956.69 -35.5321 -2078.02 347.797 -321.647 
3e-06 6.19561 0.00674671 4.599e-10 4957.5 5010.65 4976.22 -33.5569 497.691 147.735 -1221.76 
3.08e-06 6.83005 0.0274392 -1.02879e-08 4952.79 5009.13 4947.57 -34.7028 -1917.6 -21.3546 1386.58 
3.16e-06 7.16413 -0.00292511 -7.27946e-10 4959.47 5010.09 4948.17 -34.2935 236.03 -86.4862 963.833 
3.24e-06 6.63468 0.0206079 -6.96366e-09 4976.86 5009.56 4976.23 -33.4576 2496.5 -367.654 4814.34 
3.32e-06 6.99376 0.0250964 -6.28104e-10 4947.33 5009.41 4938 -33.4985 1691.33 84.3144 -766.404 
3.4e-06 7.38184 0.0243333 -2.34868e-09 4987.16 5010.2 4991.51 -34.0458 -1598.63 190.114 -580.878 
3.48e-06 7.54794 -0.00287074 -5.58436e-09 4947.78 5008.57 4939.04 -34.9481 418.059 -212.029 -3008.38 
3.56e-06 7.95372 0.0286773 -4.008e-09 4952.27 5009.13 4947.91 -33.935 -2525.07 -595.877 563.37 
3.64e-06 7.60658 0.0136287 -9.30756e-09 4969.15 5009.54 4962.99 -33.5621 367.756 -312.689 2020.06 
3.72e-06 7.22103 0.0153562 -4.90428e-09 4968.45 5009.11 4965.45 -34.0717 2636.99 -67.6106 2885.86 
3.8e-06 7.38798 0.016484 1.16036e-09 4959.93 5009.74 4943.45 -33.9697 2071.06 -75.9386 -1313.36 
3.88e-06 8.05559 0.0215614 -8.70482e-09 4977 5010.35 4994.83 -34.1637 -694.572 -148.741 -537.8 
3.96e-06 8.18684 0.019858 -3.92036e-09 4936.21 5009.7 4942.03 -33.9329 -2367.93 -221.121 -3695.87 
4.04e-06 8.04528 0.029892 -9.74754e-09 4987.17 5010.71 4985.02 -34.887 44.4427 -461.073 -2010.93 
4.12e-06 7.76083 0.015366 -4.4472e-09 4942.82 5009.26 4924.34 -33.9939 4235.67 -376.271 -5219.18 
4.2e-06 8.22711 0.00614541 -5.45935e-09 4988.66 5010.84 4982.04 -32.5365 2054.8 110.19 -1370.54 
4.28e-06 8.04932 0.0168323 -7.2738e-09 4936.97 5007.7 4940.46 -34.8565 -373.743 248.846 -1669.92 
4.36e-06 8.49696 0.0273228 -3.49596e-09 4982.85 5010.46 4978.24 -34.4527 3598.73 -141.985 -2449.38 
4.44e-06 8.21024 0.0115818 -5.97466e-09 4949.83 5009.71 4964.61 -33.4729 4710.05 -427.231 -154.736 
4.52e-06 8.60843 0.0017284 -1.01685e-08 4947.03 5008.5 4971.44 -33.7477 3785.74 -4.41425 -2111.47 
4.6e-06 8.4056 0.0288997 -4.74447e-09 4948.67 5009.27 4951.34 -35.2381 6023.94 445.987 -1597.88 
4.68e-06 9.09244 0.00633707 -5.13938e-09 4984.66 5009.93 4988.76 -33.3217 57.5387 101.483 -1987.24 
4.76e-06 9.84133 0.00388251 -6.53564e-09 4961.27 5010.23 4939.66 -33.5656 -1645.11 252.414 -22.1009 
4.84e-06 9.59301 0.00247051 -3.15834e-09 4974.69 5009.25 4985.25 -34.2452 -2489.66 251.152 322.355 
4.92e-06 9.94951 0.00208299 -4.878e-09 4933.72 5008.84 4944.05 -33.5155 -5134.16 55.7624 -2907.9 
5e-06 10.3628 0.00266435 -3.63954e-09 4953.84 5009.91 4957.87 -34.9005 -3657.78 526.913 -5618.06 
5.08e-06 10.4191 0.00751763 -2.87395e-09 4952.57 5008.87 4954.7 -34.3653 -1112.58 -372.618 -862.987 
5.16e-06 10.5624 0.00065499 -5.51649e-09 4943.84 5009.64 4953.13 -34.6775 -2334.42 -360.695 2384.76 
5.24e-06 10.6199 0.00615048 -1.10303e-08 4932.99 5008.58 4929.41 -33.6202 -2887.59 764.864 1596.81 
5.32e-06 11.0179 0.0124642 -5.31145e-09 4969.49 5011.61 4971.5 -33.5659 -5078.23 -76.2712 5154.93 
5.4e-06 10.8429 -0.00135423 -3.19093e-09 4960.27 5010.1 4950.13 -34.8774 -627.22 -414.495 2652.31 
5.48e-06 10.8208 0.0102546 -3.81867e-10 4951.41 5010.74 4967.14 -33.083 2044.83 115.158 -3461.34 
5.56e-06 10.9428 -0.00403202 -9.77245e-09 4933.32 5009.33 4947.68 -34.5064 1454.22 460.011 -863.74 
5.64e-06 10.982 0.0188681 5.53839e-09 4969.74 5011.31 5005.46 -33.3189 2573.35 -183.05 2996.69 
5.72e-06 10.5604 0.0179972 -3.00548e-09 4995.31 5010.12 4985.43 -33.5376 4593.06 -327.523 -3704.09 
5.8e-06 11.1278 0.00927441 -2.08371e-09 4943.25 5008.72 4947.26 -34.0393 972.114 212.901 3381.6 
5.88e-06 11.5287 0.010118 -1.38114e-09 4953.99 5009.9 4962.51 -33.4685 -3097.06 264.197 -2170.76 
5.96e-06 11.8741 -0.000824022 -1.11863e-08 4967.79 5009.19 4982.79 -33.3293 -2614.23 337.404 -460.062 
6.04e-06 11.9646 -0.00956076 -3.96626e-10 4937.19 5009.11 4952.46 -33.2349 -816.714 177.987 -1521.57 
6.12e-06 12.2234 0.00357713 -9.9485e-09 4989.12 5010.6 4978.41 -33.3556 -4061.88 351.528 -1439.76 
6.2e-06 12.317 0.00917567 -8.77762e-09 4938.69 5008.87 4946.05 -33.1831 -2037.62 -169.535 -1987.22 
6.28e-06 12.4125 0.017446 -6.88975e-09 4996.51 5010.54 4999.46 -33.9578 -1465.47 -308.079 1556.13 
6.36e-06 12.2447 -0.0177686 -1.31395e-08 4934.33 5009.12 4934.47 -34.0514 -43.5364 -213.233 320.578 
6.44e-06 12.4787 0.000700882 -6.18694e-09 5000.43 5010.65 5001.27 -33.7206 925.976 -35.2325 -515.237 
6.52e-06 12.779 0.00258755 7.71333e-10 4925.34 5008.84 4947.36 -33.4971 -918.858 -222.521 -3472.91 
6.6e-06 12.8386 -0.0100217 -2.60178e-09 4980.46 5010.43 4997.81 -34.0052 -3199.9 104.113 -1333.01 
6.68e-06 12.8026 -0.000652151 -6.18874e-09 4927.66 5007.62 4932.05 -33.8848 2733.95 -45.122 -201.092 
6.76e-06 12.9872 -0.00521516 1.202e-09 4999.55 5010.91 4997.51 -34.4418 -2566.85 147.769 2251.47 
6.84e-06 12.9337 0.00286702 -7.69549e-09 4969.7 5008.63 4974.69 -33.9562 -2552.05 442.056 -2271.28 
6.92e-06 13.0289 0.00675057 -7.05023e-09 4945.92 5010.31 4960.01 -32.8247 1580.74 -299.244 63.8945 
7e-06 13.2308 0.00164142 -9.62213e-09 4978.94 5010.31 4982.83 -33.4309 -1105.49 69.2111 2258.05 
7.08e-06 13.1441 -0.00311855 -5.64745e-09 4921.33 5008.48 4946.89 -33.9104 -1423.9 141.069 925.942 
7.16e-06 13.3314 -0.000111442 -6.44707e-09 4993.77 5011.66 5000.02 -33.7294 588.053 -38.1668 -3521.79 
7.24e-06 13.7097 0.00531969 -5.2804e-09 4933.43 5008.69 4942.96 -32.8386 -2107.05 -171.974 -1819.03 
7.32e-06 13.2997 6.69678e-05 -1.04309e-08 4957.87 5009.79 4975.91 -33.4085 -1828.32 191.869 -850.901 
7.4e-06 13.9385 0.0109484 -1.0981e-10 4972.77 5010.18 4970.47 -33.4641 -4116.51 323.652 -5381.28 
7.48e-06 13.5351 -0.0100854 7.31241e-10 4956.43 5008.93 4967.73 -33.3311 -2345.23 859.292 -731.713 
7.56e-06 13.8817 0.0221195 -3.72648e-09 4925.7 5007.6 4920.28 -34.3131 -4429.12 -368.429 2113.48 
7.64e-06 14.4578 -0.00564327 -1.48437e-09 4986.75 5010.35 5025.26 -33.6558 -2354.09 -270.652 511.785 
7.72e-06 14.6902 0.00979816 -2.2239e-09 4956.27 5008.31 4960.69 -32.8189 -3292.74 -181.417 189.88 
7.8e-06 14.0332 0.00835879 -6.22827e-09 4956.82 5008.62 4961.29 -33.9519 2402.02 -38.3141 569.393 
7.88e-06 14.1075 0.00762408 -1.3077e-09 4973.48 5010.13 4976.1 -33.7626 1153.65 -362.031 -888.663 
7.96e-06 14.6526 0.0128612 -1.7188e-09 4936.98 5008.07 4936.66 -33.2012 -747.158 198.482 3031.52 
8.04e-06 15.5465 0.0105945 -2.23181e-10 4983.31 5009.07 4968.57 -34.1146 -2880.76 -108.873 -784.516 
8.12e-06 14.9657 0.00280813 -2.07572e-09 4950.04 5008.34 4950 -33.5795 53.9752 -245.204 1664.03 
8.2e-06 15.2682 0.0077731 -8.7875e-09 4968.41 5007.97 4989.82 -34.0351 12.0805 -132.239 688.047 
8.28e-06 16.0451 -0.01879 -2.36656e-09 4954.4 5009.01 4961.43 -33.8937 -5690.23 416.595 -5685.39 
8.36e-06 15.9185 -0.00195857 -2.60021e-09 4985.82 5007.84 4981.73 -33.4397 -3056.59 284.052 -3626.54 
8.44e-06 15.403 0.00121036 -8.44441e-09 4953.59 5008.14 4943.98 -33.3574 1298.82 379.548 -710.94 
8.52e-06 15.5471 -0.00944339 -5.36678e-09 5022.07 5010.64 5020.55 -33.7329 -981.899 -30.5922 -83.1921 
8.6e-06 15.3592 -0.00699485 -4.05045e-09 4942.66 5007.19 4945.26 -33.4166 4671.4 326.657 -1927.17 
8.68e-06 15.5733 -0.00757895 1.80042e-10 4928.59 5006.68 4930.31 -32.5697 -678.057 177.482 -1517.13 
8.76e-06 16.01 -0.00593863 -3.20603e-10 5015.54 5009.37 5002.83 -34.1704 -4150.44 186.797 -5459.96 
8.84e-06 15.7467 -0.0141074 -7.20754e-09 4947.77 5007.77 4955.5 -33.3388 -340.561 20.9299 -580.315 
8.92e-06 16.0836 -0.00932121 -7.20232e-09 4988.3 5009.5 5002.75 -33.363 -3968.18 547.879 -2327.24 
9e-06 16.3533 -0.00811778 6.01766e-10 4995.96 5008.03 4993.83 -33.5146 -3549.15 651.928 -970.386 
9.08e-06 17.1325 -0.00457607 -8.37915e-09 4957.21 5007.75 4961.87 -34.1013 -5602.66 -150.928 -3467.31 
9.16e-06 16.2069 -0.00306046 -5.62868e-09 4994.51 5006.52 4979.27 -33.461 -3208.83 257.887 -2240.25 
9.24e-06 16.3882 -0.00510304 -3.17378e-09 4987.31 5008.96 4989.68 -34.2859 -1601.13 182.788 2014.3 
9.32e-06 17.1041 -0.0220521 -2.9424e-09 4968.86 5007.5 4982.23 -34.1817 -6704.72 94.7006 2522.1 
9.4e-06 16.7613 0.00134221 -3.77673e-09 4972.55 5007.09 4988.59 -33.0778 -3878.02 3.68765 -727.213 
9.48e-06 17.0304 -0.00801788 -1.74316e-09 5036.48 5008.06 5026.16 -33.2419 -1328.88 -388.027 1037.75 
9.56e-06 16.4898 0.00208025 -9.75913e-09 4989.85 5007.16 4983.03 -33.1291 2639.02 535.761 -486.523 
9.64e-06 17.2118 -0.0152715 -6.75393e-09 5038.82 5008.16 5018.28 -33.0201 -2027.35 -695.392 -686.439 
9.72e-06 17.291 -0.00389327 -9.72117e-10 4970.36 5006.48 4956.69 -33.4613 -3195.99 -8.08296 -2937.8 
9.8e-06 17.2849 -0.000339706 -4.04922e-09 5129.45 5009.19 5125.12 -33.8046 2793.44 36.956 -171.262 
9.88e-06 17.5275 -0.0110826 -4.28799e-10 4678.07 4995.43 4685.23 -33.9609 -1117.77 -195.232 2387.17 
9.96e-06 17.7076 -0.00157843 -4.8041e-09 6106.88 5019.55 6110.86 -33.9287 -1616.82 1620.87 -2831.29 
