ITEM: TIMESTEP
1000000
ITEM: NUMBER OF CELLS
125
ITEM: BOX BOUNDS pp ss pp
0 0.0001
0 1e-05
0 0.0001
ITEM: CELLS yc f_vel[1] f_vel[2] f_vel[3] f_mom[1] f_mom[2] f_mom[3] f_mom[4] f_q[1] f_q[2] f_q[3] 
4e-08 0.173846 1.67211 -2.44878e-09 103131 105023 102961 -83.8 -22358.6 -141377 -79754.9 
1.2e-07 -1.09874 0.717106 6.36887e-10 103766 104765 103799 186.278 122754 -89121 -45210.6 
2e-07 0.0121078 -0.195544 -1.27193e-09 104153 105303 104404 -44.8817 -18231.4 38052.9 -34137.6 
2.8e-07 -0.0528585 -0.323884 1.31191e-09 103912 105116 104021 116.876 -18750.8 31554 44815.9 
3.6e-07 -0.611394 0.214561 5.71061e-09 103671 105206 103934 -104.43 -37520.3 -44344.7 64325.3 
4.4e-07 0.53739 -0.200486 4.59381e-09 104024 105049 104084 -119.181 -12955.2 25771.5 -19067.1 
5.2e-07 1.3593 0.335829 -1.79862e-09 104015 105148 103958 -112.922 -8998.66 -116477 -117551 
6e-07 1.28765 -0.00584732 -3.42566e-09 103791 104941 103573 77.5017 -32036.2 -6451.41 -23753.9 
6.8e-07 1.39726 0.484464 1.2135e-09 104086 105211 104267 -101.316 -75336.4 -44430.3 16734.2 
7.6e-07 -0.258909 -0.156334 -4.05575e-09 104210 105049 104080 -79.763 60120.2 14065.8 -70469.6 
8.4e-07 -0.267424 -0.156213 -3.1541e-09 103983 105118 103793 -59.0325 100248 -43010.7 36557.7 
9.2e-07 0.189878 -0.016474 -1.48222e-09 103875 105033 103707 -104.106 14205.2 16104.3 -19964.9 
1e-06 1.05279 -0.201939 -3.70689e-10 104051 104947 104077 -28.0587 -9925.14 9075.67 37080.7 
1.08e-06 0.79012 0.37882 3.02356e-09 104444 105219 104233 -40.5313 -151.431 -18871.6 22281.1 
1.16e-06 1.57401 0.0661409 6.27594e-09 104448 105415 104406 -94.7305 -37716.4 31977.3 -3199.99 
1.24e-06 2.05002 -0.147019 -4.64537e-09 104305 105343 104542 82.322 67148 3763.08 39204.3 
1.32e-06 2.43526 0.300613 6.06317e-09 104018 104919 104133 -125.629 18529.8 -61431.6 -65733.4 
1.4e-06 1.29868 0.523527 2.65408e-09 104624 105420 104717 -52.3426 51816 -22239.4 -95000.6 
1.48e-06 2.83616 -0.280876 1.14661e-08 103932 104973 103854 -125.516 -47065.1 39339.7 -56402.4 
1.56e-06 3.85533 0.230035 5.57098e-09 104499 105426 104641 12.2885 -88948.1 39161.3 -89253.3 
1.64e-06 3.72455 -0.175461 6.86783e-09 104304 105303 104360 -164.465 42116.3 7681.06 -12082.2 
1.72e-06 5.55747 0.365869 2.16507e-09 104684 105396 105070 -7.42994 8927.67 -2558.23 55069.7 
1.8e-06 4.4256 -0.295724 -6.60157e-09 103914 104836 104288 -12.9316 -70284.6 29399 34877.1 
1.88e-06 3.59927 -0.37735 -3.06451e-09 104371 105255 104129 44.4582 22472 46954.7 3073.57 
1.96e-06 3.83574 0.552484 2.17874e-09 103942 105154 103787 -123.543 27905.3 8577.79 63569.2 
2.04e-06 3.31676 -0.00386243 5.38283e-09 104514 105406 104298 -6.14491 67082.7 649.747 -39386.9 
2.12e-06 3.42793 -0.101383 -3.79019e-09 104023 105031 104008 -127.782 93303.4 37169.6 -6336.2 
2.2e-06 3.24094 -0.0322992 3.47585e-09 104065 105324 104024 -26.4208 68650.5 55025.3 16514.4 
2.28e-06 2.98491 0.381878 3.72637e-09 104191 105367 104267 -87.7965 43362.9 -38762.8 -6413.79 
2.36e-06 4.67264 -0.172656 -2.59306e-09 103925 105207 104033 -49.7679 -77360 27874.3 -94433.5 
2.44e-06 4.63042 0.279334 5.57151e-10 103313 104883 104014 31.4783 103092 12209.7 -22437.2 
2.52e-06 3.52579 0.327268 -2.28109e-09 103838 104893 104062 -152.755 63570.4 -73688 -16442.8 
2.6e-06 4.29052 -0.331404 1.06578e-08 103771 105134 104087 -203.238 62428 47579.9 98628.5 
2.68e-06 5.20826 0.470344 9.06304e-09 104088 105382 104223 -13.1086 -10053.4 -41071.9 3420.52 
2.76e-06 4.91936 0.244091 1.37442e-09 104337 105234 104171 -55.8067 -28137.8 -6187.07 891.96 
2.84e-06 4.8866 -0.381653 2.47051e-09 104632 105445 104666 -15.2345 -61658.7 -30606.8 -7617.48 
2.92e-06 5.27804 0.357065 -7.62476e-09 104287 105329 104300 -87.4305 -40747.2 -12690.9 -87072.7 
3e-06 4.55375 0.485879 7.31627e-09 103629 104864 103930 -78.008 14735.6 -26467.6 -51706 
3.08e-06 5.28121 -0.630538 1.06125e-08 103960 105263 103882 -54.3431 15672.1 55310.7 8602.76 
3.16e-06 4.46724 0.177332 6.66053e-09 103497 104861 103852 -64.4351 81245.4 9326.68 -41172.4 
3.24e-06 5.92816 0.562103 5.77753e-09 103902 105106 104197 -43.1883 -49639.7 -3282.44 -23712.3 
3.32e-06 5.60028 0.541954 -3.02867e-09 103233 104734 103259 -5.6927 -39931.5 -40033.7 -97026.9 
3.4e-06 4.73084 -0.252513 2.91265e-10 104441 105444 104532 -109.522 146198 37010 142819 
3.48e-06 5.64045 -0.12559 3.64481e-09 103793 104834 104027 -28.7283 33922.2 78384.9 35080.9 
3.56e-06 5.26768 0.262261 3.74136e-09 104414 105205 104086 17.723 1093.5 -30292 -21302.3 
3.64e-06 6.30063 0.204916 3.77137e-09 104205 105306 103855 -103.566 -5671.22 -19789.4 -2727.2 
3.72e-06 7.10631 -0.0199129 6.72729e-09 104380 105230 104261 -142.485 -51145.9 -20937.6 30145.1 
3.8e-06 6.74217 -0.226621 1.72377e-09 103889 104785 104035 -117.823 -13631.3 24504.3 15908.9 
3.88e-06 6.73333 0.565553 3.61834e-09 104229 105000 103810 -193.727 30531.4 10214.5 -48481.4 
3.96e-06 9.0378 0.0892559 2.47273e-09 104153 105119 104423 -39.5632 -86204.3 -17285.6 -5787.26 
4.04e-06 8.98037 0.43722 -2.55878e-09 103888 105099 104079 -0.699439 -5087.89 7297.72 55016.2 
4.12e-06 8.4113 0.584841 -3.14724e-09 104404 105431 104380 29.1704 -28435.6 -52644.7 42696.2 
4.2e-06 8.52086 0.168335 5.54716e-09 104124 104861 104103 36.566 -48096.9 -46243 -20408.1 
4.28e-06 6.72062 1.09368 1.89672e-09 103992 105337 104278 -158.128 10541.3 -95717.5 72524.6 
4.36e-06 6.68675 -0.240689 -2.63921e-09 103932 105096 104207 7.73225 87031.4 42879.2 4446.43 
4.44e-06 7.5533 0.0441787 1.64393e-09 104019 105193 104130 -7.30349 -3523.81 -13258.7 -63835.6 
4.52e-06 7.48643 -0.115741 -3.93028e-09 104243 105078 104290 -59.1358 18255.7 -27258.8 -13513.1 
4.6e-06 7.56237 0.0487521 1.21271e-09 104197 104879 104020 -61.8769 -30130.2 28770.9 4817.1 
4.68e-06 7.81315 -0.303575 -4.03031e-10 104022 105041 103865 -226.879 -19821.1 18712.7 38200.9 
4.76e-06 8.0554 0.353459 -6.97004e-09 103916 105008 103675 -43.7927 -83408.3 12284.5 73112.9 
4.84e-06 8.79508 0.133648 -4.80777e-09 104386 105521 104540 -129.381 -42131 3780.21 -89855.8 
4.92e-06 7.37513 0.190374 4.77861e-09 104582 105423 104529 4.86924 28544.9 4823.32 44740.1 
5e-06 7.92726 0.0910889 6.13259e-10 104038 105024 104039 -194.065 -32324.3 31374.7 84152.3 
5.08e-06 8.58653 -0.312092 2.68654e-09 104575 105338 104289 -209.515 26568.5 -9417.49 -14102 
5.16e-06 10.1037 -0.122726 3.805e-09 104030 104950 103919 -45.9972 -58107.6 35153.6 -12635.2 
5.24e-06 10.1438 0.106427 -7.07988e-09 103756 104857 103646 29.951 -146246 -2325.92 23700.3 
5.32e-06 9.28873 0.0645001 -2.99821e-09 103887 105140 104114 -98.5415 -46810.9 26481.7 26952.5 
5.4e-06 10.0107 -0.136848 -5.52349e-09 104024 105082 104108 -12.6673 -41270.3 7692.9 -9744.17 
5.48e-06 9.75033 0.490636 -2.1998e-09 104353 105112 104015 -76.4184 -45243.7 -61985.1 -56212 
5.56e-06 9.78823 0.111065 2.32335e-09 104525 105538 104614 -36.9433 -41983.2 1983.36 -14839.2 
5.64e-06 9.20209 -0.116047 -5.07459e-09 104502 105265 104410 -7.81931 9039.28 -22357.9 39341.4 
5.72e-06 11.1324 0.0155446 6.27287e-09 104199 105072 104293 -99.8251 -50091.9 -39779.6 -14905.2 
5.8e-06 10.2657 0.218068 -4.69721e-09 104528 105376 104156 10.5286 5475.28 3507.34 35583.1 
5.88e-06 10.1785 -0.195457 1.74642e-09 103895 105202 103977 42.4313 36248.8 28752.9 36626.5 
5.96e-06 10.1807 -0.0350335 -3.90832e-09 104150 105066 104142 -52.3346 -18258.8 35609.2 1271.65 
6.04e-06 10.8748 0.0628355 2.411e-09 103855 104896 103737 -126.046 -61327.7 -2796.44 70835.5 
6.12e-06 10.835 0.0878191 3.89111e-09 104248 104991 104038 -56.1603 35416.8 -27340.5 79336.7 
6.2e-06 10.2198 0.811939 2.52015e-09 104148 104985 104267 -66.2502 12771.3 23829 -86703.4 
6.28e-06 11.3317 -0.691688 -2.41655e-09 103934 105037 104153 44.3404 -25043.1 23465.9 58035.9 
6.36e-06 11.4212 -0.131925 -2.02272e-09 103801 104988 104099 -3.70701 19162.9 47619.9 53667.5 
6.44e-06 12.2304 -0.589089 2.37736e-09 104098 105037 104268 -152.968 52309.9 59634 34461.2 
6.52e-06 12.1679 -0.0831793 -1.52982e-09 103905 105002 104043 -291.544 41480 -5315.81 -83947.4 
6.6e-06 12.3291 0.796026 3.7725e-09 103723 104967 103630 -112.116 10792.1 -26758.5 -118947 
6.68e-06 13.3464 -0.263643 2.77699e-09 104145 105266 104083 -91.8483 -37437.5 4008.9 13379.4 
6.76e-06 12.4493 -0.255034 4.76972e-09 104338 105026 104163 -146.325 45242.2 27808.6 -8220.14 
6.84e-06 14.1892 0.111065 3.91027e-09 103530 104689 103504 -170.888 -13366.5 4703.58 1479.92 
6.92e-06 14.0779 -0.379825 3.10075e-09 103672 104750 103504 130.556 -4517.08 43338.7 42032.2 
7e-06 14.4845 0.308912 8.53167e-09 103786 104927 103948 -203.854 -31536.3 -45629.2 101654 
7.08e-06 14.255 0.354623 7.41586e-09 103768 104990 103727 -0.0252969 42803.6 -39373.2 -40237 
7.16e-06 15.4321 0.00438526 5.58161e-09 104060 105163 104294 -186.633 47617.9 -9046.96 53694.2 
7.24e-06 16.2288 -0.069715 -2.07135e-09 104137 105017 104066 -29.7949 -12739.4 25438.9 -64796.7 
7.32e-06 15.7869 0.340145 1.6167e-09 104275 105145 104302 -22.8605 63784.2 -37254.2 76425.6 
7.4e-06 15.1139 -0.150098 3.91244e-09 103706 104864 103353 -132.052 41689.7 55743.1 1397.35 
7.48e-06 16.2503 -0.191444 2.58199e-10 104579 105293 104539 42.5877 -21436 37549.6 62014.7 
7.56e-06 15.5847 -1.03838 1.52934e-09 103752 105023 103890 -101.717 -1789.56 149116 44329.5 
7.64e-06 16.0436 0.427117 2.52463e-09 103959 105023 103775 10.5619 16830.6 9194.63 82473.2 
7.72e-06 16.6275 -0.548292 5.72309e-09 104084 105078 103782 -43.5073 -69810 35473.8 -6656.16 
7.8e-06 16.875 -0.203329 1.01151e-08 104136 105134 104031 -204.038 -92041.8 -78559.7 -50276.8 
7.88e-06 16.4162 -0.0469961 7.24984e-09 103999 105048 103932 19.3367 21601.2 -37523.1 31999.4 
7.96e-06 15.6774 -0.0683795 -2.75508e-09 103818 105183 104435 8.1779 19250.5 33718.4 33757 
8.04e-06 15.4474 -0.367963 9.40513e-10 103818 104844 103636 -115.729 99503.7 12044.8 143390 
8.12e-06 17.4293 0.0443395 5.78547e-09 104405 105305 104079 -166.965 -39898.6 -6289.16 -58180.1 
8.2e-06 16.8373 -0.0130928 8.51854e-10 104000 104996 104036 66.0797 -9192.43 52709.1 -35936.8 
8.28e-06 16.361 -0.260861 4.48069e-10 104183 104978 103830 -50.5796 28695.6 67390 32744.1 
8.36e-06 16.6107 0.419495 1.14625e-09 104405 105292 104359 8.46023 -4426.71 10930 -36440.1 
8.44e-06 15.9154 0.226794 -3.84397e-09 103805 104907 103828 201.423 37479.9 -81861.4 52086.2 
8.52e-06 15.9429 -0.652536 2.05386e-10 104374 105243 103936 74.5725 74651 27407.5 18776.9 
8.6e-06 16.7284 0.338158 3.75163e-09 104410 105077 104055 -47.0337 -29879.9 -22639.9 -25027.4 
8.68e-06 17.0542 0.0662735 -5.82805e-09 104412 105095 104182 -86.0844 58419.7 -63421.5 -84043.3 
8.76e-06 16.2691 0.280863 -1.72751e-09 104261 105194 104106 -62.855 12303.9 13167.8 40507.6 
8.84e-06 17.0935 0.184532 1.87632e-09 103979 105102 104119 -205.399 -48404.6 -10648.1 12551.9 
8.92e-06 17.36 -0.30993 5.78563e-09 104586 105426 104572 -76.6379 -9025.5 59073 -102487 
9e-06 17.9996 -0.651222 2.58872e-09 103782 104837 103836 -93.2529 -70325.6 40244.4 28612.8 
9.08e-06 18.0393 0.346718 -4.18094e-09 104609 105279 104531 -28.5288 -54723.2 17767.1 -24920 
9.16e-06 18.4386 0.0810622 -5.45407e-09 104067 105130 104221 -13.153 -27443.8 -13393.6 -108583 
9.24e-06 18.2237 -0.441131 -6.07175e-09 104316 105157 104543 -41.0347 -14600.8 -3469.73 -68180.9 
9.32e-06 18.3625 -0.56713 3.12445e-09 104222 105025 103985 -136.545 77321.3 85270.4 -4442.85 
9.4e-06 20.0655 0.257105 6.65503e-09 103871 105175 104138 -188.534 5964.34 -42512.4 89687.4 
9.48e-06 19.7051 0.18041 3.9078e-09 104153 105105 104049 74.309 20899.5 -93155.2 24323.6 
9.56e-06 18.9946 0.25764 -2.45153e-09 103955 104991 104097 -30.0268 61699.6 56705.7 -99156.5 
9.64e-06 19.0116 0.295512 -4.69347e-09 104051 104879 103953 -4.36143 95102.7 15363.4 -46495 
9.72e-06 19.2396 -0.971642 -1.35444e-08 104087 105186 103821 73.8096 -4560.95 107347 -95649.4 
9.8e-06 19.08 0.0727838 -5.46544e-09 103902 105120 104121 -73.5871 46103 39940.8 -44652.2 
9.88e-06 19.3829 -0.0357843 -2.70779e-09 104223 105154 104035 -211.931 -39811.9 19272.6 48617.1 
9.96e-06 19.6985 -1.00355 -8.93313e-10 103660 105511 103877 72.4133 71507 129612 -19097.9 
