ITEM: TIMESTEP
1000000
ITEM: NUMBER OF CELLS
125
ITEM: BOX BOUNDS pp ss pp
0 0.0001
0 1e-05
0 0.0001
ITEM: CELLS yc f_vel[1] f_vel[2] f_vel[3] f_mom[1] f_mom[2] f_mom[3] f_mom[4] f_q[1] f_q[2] f_q[3] 
4e-08 0.907197 -0.167987 1.47012e-09 102157 103200 102414 51.5268 -13631.3 98973.6 -77101.1 
1.2e-07 1.06214 0.494598 1.30424e-08 102311 102779 102099 -105.658 67496.5 168.704 -64149.3 
2e-07 2.34539 -0.233842 -2.81801e-09 102088 102786 102315 -67.0953 -29605.4 76684.5 50680.9 
2.8e-07 2.50054 -0.335148 1.98105e-09 102171 102926 102329 -63.786 -50307.1 93004.8 56187.9 
3.6e-07 2.84345 0.00983802 1.40867e-09 102141 102609 101984 14.3337 2796.33 5905.66 1165.7 
4.4e-07 4.38979 0.410745 1.60805e-09 102051 102732 102064 17.6017 -71117.1 -41353.3 78410.5 
5.2e-07 4.05723 0.16963 -9.76249e-09 102710 102805 102534 45.4828 -31456.3 -54987.6 43282.4 
6e-07 4.46179 0.167089 3.3597e-09 102361 102650 102100 -43.2936 -5687.65 -34367.8 48623.2 
6.8e-07 4.50523 0.0784476 -7.02147e-09 102500 102835 102369 23.5752 36697.9 3701.39 -9532.63 
7.6e-07 4.53674 -0.324038 3.10394e-09 102634 102873 102604 -116.4 -748.127 65985 11080.6 
8.4e-07 3.61125 -0.106743 -2.07054e-09 102798 102896 102393 -28.9077 -45083.3 32409.1 201.791 
9.2e-07 4.45216 0.182077 5.14862e-09 102526 102934 102184 -31.4097 2222.54 -5568.48 -36511.8 
1e-06 5.06427 0.350528 1.23022e-08 102191 102686 102149 -40.9038 54750.3 -43026 -35824.4 
1.08e-06 5.44937 -0.0536106 9.05881e-10 102610 103078 102398 -89.1131 -41417.4 13093 -10979.2 
1.16e-06 5.37746 -0.423244 7.40049e-09 102276 102839 102486 -243.553 4351.73 27858.2 14474 
1.24e-06 5.66907 -0.0766829 5.94903e-09 102422 102567 102338 -112.973 8907.3 61454.6 -32110.8 
1.32e-06 7.05881 -0.0515879 1.33371e-08 102254 102599 101965 -83.2777 -12967.1 44483.4 56456.8 
1.4e-06 7.6293 0.304964 4.33908e-09 102522 102909 102710 14.9687 11010.3 25902.8 39294.1 
1.48e-06 8.27589 0.0789574 -5.32709e-09 102563 103066 102785 -23.1438 -57442.8 23144.6 58542.3 
1.56e-06 7.4461 -0.172771 -2.72422e-10 102446 102883 102285 -40.2946 38380.4 92781.5 23995.2 
1.64e-06 8.19597 -0.0117622 -2.91451e-09 102454 103041 102631 5.32158 -27709.5 11690.7 229.844 
1.72e-06 6.69234 0.247677 7.0517e-09 102251 102564 102194 49.2334 -2082.4 -9971.64 -46988.7 
1.8e-06 8.56375 -0.119474 4.08506e-09 102220 102675 102124 -200.231 -54898.8 2961.19 17625.9 
1.88e-06 8.40787 -0.0606523 6.31038e-09 102329 102934 102497 45.1875 -10888.5 -33386.2 12834.8 
1.96e-06 9.08694 0.285255 1.68319e-09 102274 102873 102325 -130.563 -40887.5 -6499.92 -89524.8 
2.04e-06 9.09928 -0.515435 3.81771e-11 102823 102899 102658 -46.4159 -54455 85461.9 -34228.5 
2.12e-06 9.11413 -0.177501 -4.56831e-09 102307 102931 102337 87.9866 10484.2 -20707.6 -43573.7 
2.2e-06 8.56183 0.393743 2.10926e-09 102433 102894 102369 -70.8196 97391 -66986 -132733 
2.28e-06 9.13746 0.133961 -6.08376e-09 102347 102724 102524 -7.0913 -12096.3 -7894.46 -10704.7 
2.36e-06 9.19953 0.140819 -4.90521e-09 102137 102662 102132 -104.734 -30281 -15005 279.209 
2.44e-06 9.33817 -0.143737 -1.27001e-09 102402 102875 102717 -39.9292 -21936.7 12678.9 -31568.7 
2.52e-06 9.80981 0.119407 4.32712e-09 102331 102880 102588 1.22125 -11573.5 -964.015 -32285 
2.6e-06 9.44503 -0.41161 -2.01056e-09 102357 103008 102481 139.156 -22265.8 48842.3 58399.9 
2.68e-06 9.88986 0.163909 2.09965e-09 102503 102965 102402 -51.5482 -15480.1 46259.9 23192.1 
2.76e-06 10.9049 0.0529776 6.33967e-09 102573 103052 102559 -11.7221 38145.5 -16709.1 -13409.3 
2.84e-06 11.0955 0.187032 2.77691e-09 102481 103039 102575 95.0342 -18040.4 -17913.8 98.8493 
2.92e-06 11.2584 0.203803 6.31777e-09 102769 103066 103167 52.8599 23805 12461 -26237.6 
3e-06 11.6948 0.00481828 -5.41918e-09 101856 102644 102234 -126.159 -52351.7 -16440.3 -28909.3 
3.08e-06 11.9383 0.0240039 2.04959e-09 102251 102788 102409 -94.9514 12609.6 -16722.9 -9645.65 
3.16e-06 11.1434 -0.00292062 2.68978e-09 102301 102761 102149 -40.6899 75246.7 -15711.8 30699 
3.24e-06 12.4857 -0.046432 1.02188e-08 102499 102821 102599 -141.881 -33828.7 6900.54 -46471.3 
3.32e-06 12.0773 0.116391 -2.68235e-09 102448 102959 102498 -42.9014 -30527.7 -4303.32 -21188.3 
3.4e-06 13.0783 -0.178285 5.06152e-11 102665 102770 102397 -73.2697 9480.3 23112.4 -22243.9 
3.48e-06 12.1713 0.163326 1.62942e-09 102653 102816 102394 78.6929 -4312.96 -22114.9 98977.3 
3.56e-06 11.9829 -0.341822 2.87242e-09 102598 102705 102585 -125.82 94893.8 18270.2 -34106.5 
3.64e-06 13.4063 0.0424457 1.78273e-09 102473 102724 102268 -130.863 -41275.9 42566.9 -73079.5 
3.72e-06 13.3863 0.273311 -4.45824e-09 102307 102839 102240 34.9839 -51621.7 -12613.3 60598.1 
3.8e-06 13.4969 -0.260048 -7.54809e-09 102263 102863 102421 -110.615 190.071 -20030.3 -4247.93 
3.88e-06 13.1807 -0.386807 5.5244e-09 102242 102578 102522 44.5799 -1359.79 12403 -20214.2 
3.96e-06 13.024 -0.433521 -4.79753e-09 102380 102920 102393 58.1513 -44822.6 -13103.1 58051.1 
4.04e-06 12.3166 -0.0871992 -2.29124e-09 103011 103015 102714 131.011 -11355.3 -5971.23 29959.4 
4.12e-06 12.9045 -0.409467 7.19913e-09 102530 102612 102342 -114.949 3795.09 77291.1 19792.5 
4.2e-06 13.3598 -0.354438 2.65942e-09 102146 102843 102292 62.9248 -7852.87 40469.2 36605.1 
4.28e-06 12.7113 -0.267035 7.6973e-09 102290 102471 102015 -171.134 -8631.22 35713.6 45554.4 
4.36e-06 12.8874 -0.0348644 -9.82796e-10 102546 102943 102760 -3.70194 -59642.8 15156.1 -53145.8 
4.44e-06 12.189 -0.203303 -2.02094e-10 102477 102904 102417 40.7471 82888.3 -11345.6 26355.4 
4.52e-06 12.6118 0.0609834 -2.77599e-09 102335 102585 102210 -240.157 -10398.7 10753 33453.6 
4.6e-06 13.0796 0.353039 -1.09666e-08 102112 102747 102405 -5.65649 -36980.4 39569.3 11306.3 
4.68e-06 12.849 -0.0206535 1.02667e-09 102473 103082 102599 7.98743 89445.3 -2411.3 47784.5 
4.76e-06 12.8634 -0.104651 2.01957e-09 102779 103028 102981 -1.99358 19851 11589.1 -61741.1 
4.84e-06 13.2271 -0.150449 9.76464e-09 102653 102674 102477 39.38 102175 32734.4 16742.1 
4.92e-06 13.2152 -0.672878 2.97343e-09 102808 103066 102607 -104.691 17631.6 42119.1 21526.2 
5e-06 13.2489 -0.0135877 1.93803e-09 102614 102945 102745 -39.7706 -24226.1 -13400.3 -22463.3 
5.08e-06 12.9822 0.0384487 5.57519e-09 102792 102921 102535 -57.8988 -73757.7 45776.2 -54939.3 
5.16e-06 13.2104 -0.0170539 8.3026e-09 102705 103064 102762 55.9084 -34431.5 10092 -20035.5 
5.24e-06 13.533 0.180467 -1.30832e-09 102503 102963 102607 -40.9206 -7550.08 -12214.6 21304.8 
5.32e-06 13.5767 0.0405729 -2.44164e-09 102345 102784 102407 -35.4047 21171.1 23815.1 44055.8 
5.4e-06 13.6139 0.199105 1.34791e-09 102421 102993 102320 18.8246 -47055.3 14798.3 -3117.13 
5.48e-06 12.7773 -0.384542 -1.05762e-08 102117 102817 102334 56.8244 26159 49758.4 680.089 
5.56e-06 12.7435 0.122814 -5.88141e-09 102239 102783 102131 -39.6012 5102.49 6923.45 -10918.5 
5.64e-06 12.7095 -0.0158613 -5.7831e-09 102585 103083 102403 -76.0278 42489.7 1262.98 89847.4 
5.72e-06 12.2773 0.217618 -8.82246e-09 102287 102882 102354 -56.4923 11403.2 34355.8 19766.8 
5.8e-06 10.5598 -0.127727 2.84047e-09 102596 102929 102304 41.6475 47104 12663.8 76467.6 
5.88e-06 11.6196 0.158294 -9.63084e-10 102365 102804 102100 -6.55554 67886.8 -34598.7 -36970.5 
5.96e-06 11.6476 -0.425632 2.1833e-09 102225 102672 102568 -130.516 -15835.2 51378.5 74329.6 
6.04e-06 11.7279 0.258673 3.24129e-10 102810 102817 102534 95.4075 21348.1 -6462.79 39704.6 
6.12e-06 11.5508 -0.0160089 -1.81971e-09 102623 102827 102528 -7.18167 54776.6 -13802 9271.82 
6.2e-06 11.6499 -0.0264365 -3.5686e-09 102445 102732 102033 114.562 40922.2 -6894.54 102869 
6.28e-06 12.7182 0.243759 4.47769e-09 102245 102915 102212 0.947618 -56170.9 -37850.4 63048.6 
6.36e-06 13.1095 0.433314 1.11497e-08 102270 102722 102353 -128.719 1364.77 9046.39 24029.9 
6.44e-06 14.0797 -0.462991 8.7671e-09 102671 102832 102314 -195.121 -9065.23 27081 65834.5 
6.52e-06 13.9579 0.0320808 5.53204e-10 102525 103109 102543 -131.097 -22383.8 -11042.5 769.134 
6.6e-06 13.862 0.34562 -2.34358e-09 102663 102945 102473 -18.6951 53368.1 -46704.9 59683.5 
6.68e-06 14.0746 0.326354 6.61262e-09 102368 102713 102496 -38.8084 -18964.8 -16580.9 -23196.6 
6.76e-06 14.3458 0.310739 6.11337e-09 102256 102737 102321 -15.0905 -20764.7 -28639.7 12429.7 
6.84e-06 14.0787 -0.369167 -5.17746e-09 102706 103084 102280 57.5688 48018.2 45890.3 -65302 
6.92e-06 14.1874 0.532351 -1.22288e-08 102512 103128 102514 39.8593 -73875.5 -95113.8 -49603.4 
7e-06 14.3951 -0.0209564 7.49285e-09 102499 102697 102236 -140.952 12943.4 13472.4 -97374.5 
7.08e-06 14.3448 -0.345192 -4.56949e-09 102450 102848 102556 78.4849 58880.3 30886.7 6124.98 
7.16e-06 14.6787 -0.238822 6.40899e-09 102203 102833 102018 -35.8588 6.77782 7473.66 75118 
7.24e-06 13.7329 -0.0822508 -1.06772e-08 102299 102759 102392 130.64 -6593.92 -8534.33 14148.9 
7.32e-06 14.4036 -0.242963 -5.86868e-09 102653 102846 102433 94.5175 -65753.4 15124.5 45251.1 
7.4e-06 13.2376 -0.19909 1.78832e-09 102030 102808 102325 8.81815 2622.1 55180.5 51050.9 
7.48e-06 14.5124 0.557906 9.61335e-10 102361 103044 102293 -12.5614 -73435.3 -2605.7 -47116.2 
7.56e-06 13.2852 -0.293411 3.18537e-09 102202 102789 102258 20.3747 50982.8 53430.8 12853.7 
7.64e-06 13.9599 -0.087195 2.93236e-09 102498 102825 102619 -34.66 5765.67 27303.1 52220.4 
7.72e-06 14.2413 0.106712 2.13648e-09 102385 102691 102578 46.62 152897 9758.44 99402.5 
7.8e-06 14.5098 -0.0415506 6.14033e-09 102363 102730 102357 -59.0035 42773.7 15401.1 15082.4 
7.88e-06 16.1955 -0.0232975 5.10384e-09 102416 102838 102552 185.225 17397.6 -25462 -105295 
7.96e-06 14.7246 -0.131605 7.93088e-09 102857 103058 102542 -45.1115 38439.3 11674.5 9846.6 
8.04e-06 15.4475 -0.00102009 1.09095e-08 102057 102578 101977 -25.4811 63558.7 -21761.9 67122.1 
8.12e-06 16.7817 0.300155 -1.27159e-09 102078 102666 102566 -52.1613 22339 -14400.7 55691.1 
8.2e-06 16.0464 0.214108 1.86619e-10 102356 102846 102532 -150.854 36278.4 -34655.3 13693.4 
8.28e-06 16.856 -0.395047 -1.56582e-09 102581 103059 102429 -5.61419 19636.2 -902.556 -5405.73 
8.36e-06 16.6796 0.258824 -1.18265e-09 102351 102710 102495 -40.0112 9438.52 -13643.1 -24690 
8.44e-06 17.3242 -0.301515 -5.69209e-10 102254 102848 102632 -67.4873 -60267.8 16794.3 -71991.2 
8.52e-06 16.3252 -0.262182 -4.45942e-10 102568 102717 102677 -7.75113 -31773.4 -843.303 -37777 
8.6e-06 18.3142 -0.370674 7.29643e-09 102513 102728 102508 -36.4186 -29799.2 48064.9 -70747.1 
8.68e-06 18.5112 0.0360684 -7.36145e-09 102896 103095 103024 54.1273 5150.33 -33200.3 -41721.7 
8.76e-06 18.4213 0.124875 1.60143e-09 102307 102807 102205 -36.3478 -53305.5 13908.9 51266.7 
8.84e-06 18.0686 -0.142983 -4.19947e-09 102281 102826 102246 -45.5975 -20311.9 15697.5 -59098.5 
8.92e-06 18.9118 -0.113514 -3.37756e-10 102434 102844 102422 -46.3662 -42530.9 1033.82 51399.1 
9e-06 18.6453 0.0145703 -2.47404e-09 102331 102927 102324 93.3158 -31292.3 27831.9 4968.79 
9.08e-06 18.9031 -0.105298 9.01115e-09 101998 102799 102106 -36.9988 3673.29 17883 49244.3 
9.16e-06 19.8258 0.655559 1.52912e-08 102042 102607 102186 -72.7054 -9659.45 -34019.9 21027.4 
9.24e-06 19.833 0.257525 2.61349e-09 101828 102786 102485 -1.53438 26344.2 -44554.5 21784.6 
9.32e-06 20.0011 0.363065 -7.07125e-09 102274 102909 102457 -44.0312 37086.4 -64213.2 23144.2 
9.4e-06 20.5041 0.243561 2.23462e-09 102094 102753 102259 28.1231 4212.13 -30866 -33448.5 
9.48e-06 20.5955 -0.263535 -6.40969e-09 102598 102848 102450 104.633 -45166.1 -8483.35 35306.9 
9.56e-06 18.3675 -0.0276906 -8.00379e-09 102452 102898 102704 83.9291 -3819.23 -19420.2 87025.1 
9.64e-06 19.1584 0.229055 8.25127e-09 102586 102710 102485 -111.517 -50100.6 -44652.1 -38747.9 
9.72e-06 19.8918 0.414233 5.24167e-09 102519 102769 102487 -25.1865 36633.9 -40341.7 -35678.3 
9.8e-06 19.8079 0.0117645 -3.42931e-10 102311 102605 102353 -131.71 -83959.4 -6241.83 20916.3 
9.88e-06 20.7459 0.121217 -4.90641e-09 102486 102761 102440 54.0263 -20373 -25419.4 -6249.4 
9.96e-06 19.8255 -0.154886 1.02882e-08 102053 102909 102125 -135.165 -49702.6 -39765.8 -23526.3 
