ITEM: TIMESTEP
1000000
ITEM: NUMBER OF CELLS
125
ITEM: BOX BOUNDS pp ss pp
0 0.0001
0 1e-05
0 0.0001
ITEM: CELLS yc f_vel[1] f_vel[2] f_vel[3] f_mom[1] f_mom[2] f_mom[3] f_mom[4] f_q[1] f_q[2] f_q[3] 
4e-08 -0.0727633 -0.369535 -5.64664e-09 104913 106786 105099 -49.9748 -121248 275763 -86711.9 
1.2e-07 0.108607 -0.911582 2.59903e-09 105508 106790 105483 -85.2021 -79985.5 104454 4244.14 
2e-07 -0.242647 -1.20853 -3.50937e-09 105162 106708 105356 -112.083 17278.9 37761.4 -15565.6 
2.8e-07 0.968361 -1.46426 -2.43645e-09 105586 106765 105561 -71.9227 -59531.7 56021 30083.4 
3.6e-07 0.0910415 -1.45476 5.90696e-10 105221 106813 105643 59.727 814.426 34936.2 -58323.7 
4.4e-07 0.833152 -1.31835 -1.04491e-09 105484 107128 105840 -123.923 87001.5 -13142.5 39843.3 
5.2e-07 0.781955 -1.55303 6.15424e-10 105691 106926 105302 -117.513 21739.7 83763.6 41154.2 
6e-07 1.96721 -1.82656 -4.10162e-09 105545 107055 105395 -16.3764 120441 45965.3 58189.4 
6.8e-07 1.81508 -1.26108 -2.46848e-09 105497 107260 105484 -123.53 -67896.2 71081.5 60351.7 
7.6e-07 1.54806 -1.28931 -2.38607e-09 105326 106867 105622 -69.2392 26976.2 -26007.8 -27818.2 
8.4e-07 1.35265 -1.54265 2.37163e-09 105887 107231 105794 -133.7 12690.4 32616.9 -73202.8 
9.2e-07 1.7216 -1.41638 -1.3033e-09 105933 107433 105799 24.386 -5702.79 17045.8 1169.35 
1e-06 0.94789 -0.862547 -1.02619e-08 105913 107193 105574 -9.30503 -41585.5 44923.5 -6092.34 
1.08e-06 1.33288 -1.06643 3.20242e-09 105601 107200 105569 63.3628 66884.3 -6428.67 -27107.2 
1.16e-06 1.94132 -0.935374 8.11296e-09 105609 107373 105396 -42.1193 98921.7 10926.9 28424.8 
1.24e-06 2.13939 -0.628124 -2.19866e-09 105380 107311 105685 -96.0954 26461.5 35561.1 72261.9 
1.32e-06 2.04138 -1.3223 -2.13472e-09 105592 107238 105646 84.6917 -52464 67126.5 -47354.1 
1.4e-06 0.82281 -1.12313 -1.72349e-08 105894 107605 106232 51.4127 6997.72 37804.6 -106381 
1.48e-06 0.791403 -1.21066 1.72518e-08 105991 107546 105725 42.6851 116497 14242.6 -79947.7 
1.56e-06 2.53089 -0.889695 1.02729e-08 105765 107622 105785 -6.11608 -40790.7 -14910.7 -20987.9 
1.64e-06 4.20064 -1.18301 -4.56438e-09 105726 107595 105989 108.106 -84504.4 54161.2 48991 
1.72e-06 2.73948 -0.753655 -4.93567e-09 106058 107738 105985 59.0611 55048.9 -10493.1 66941 
1.8e-06 2.90693 -1.20996 1.19722e-09 105892 107546 105878 -10.4653 -70278.2 39522.2 17081.1 
1.88e-06 2.24801 -1.20733 3.03907e-09 106171 107718 106306 -77.8561 44374.6 38749.7 -79017.5 
1.96e-06 1.33303 -0.886523 -3.21123e-09 105694 107634 105469 92.7096 -2547.55 18569.9 -36471.1 
2.04e-06 0.694994 -1.04283 4.27926e-09 106261 107645 106313 -91.4389 4685.37 26865.7 -40912.4 
2.12e-06 0.874072 -0.43306 6.79589e-09 105567 107511 105705 -45.8281 55529.4 -32930.5 12350.8 
2.2e-06 2.54215 -0.698673 -3.04329e-09 105714 107658 105954 23.6481 -111098 -5424.49 -38059.9 
2.28e-06 1.50269 -0.834577 3.50629e-09 106022 107795 105844 -113.165 35265.9 12352.6 -25552.7 
2.36e-06 0.990884 -0.685727 1.01637e-09 105710 107629 105531 93.1012 55004.9 13982.9 77237.8 
2.44e-06 1.0421 -0.90496 -4.16446e-09 105941 107767 106102 -24.5233 -48579.1 67371 -27168 
2.52e-06 1.74053 -1.07583 8.44775e-10 105709 107655 106265 -89.6522 24631 34678.2 -100377 
2.6e-06 2.37937 -0.648398 -3.0318e-09 105412 107771 105573 -90.0696 70624.2 -3217.7 24719.8 
2.68e-06 2.72615 -0.559074 3.67e-09 106044 107583 105483 -142.621 41282.2 -12740.8 -19588.2 
2.76e-06 1.48178 -0.703423 2.64648e-09 106136 107677 105885 15.706 77224.9 15010 44515.8 
2.84e-06 2.86694 -0.88069 2.83166e-09 105750 107765 106033 -94.8796 -91490 10085.2 167528 
2.92e-06 2.39704 -0.486063 -9.56219e-09 105666 107594 105650 27.5043 18052.9 23989.9 -23108.5 
3e-06 1.63563 -0.46193 -3.86451e-09 106214 107726 105808 57.201 17343.8 18056.1 -110426 
3.08e-06 2.74327 -0.490739 1.39799e-08 106348 107835 105966 -70.1459 13183.3 30853.8 -59902.7 
3.16e-06 4.11669 -0.539969 7.33246e-09 105923 107863 105926 -34.5784 -16633.9 -59143.1 -107921 
3.24e-06 4.10338 -0.523219 -1.42443e-10 105716 107878 106151 182.925 56884.5 -22117.8 -40714.1 
3.32e-06 2.99663 -0.190537 -1.92062e-09 106067 107690 105936 -37.1223 131773 4044.56 67155.3 
3.4e-06 3.94341 -0.317459 6.07918e-09 105826 107846 106128 -138.316 57745.1 -21584.6 -36427.5 
3.48e-06 4.80326 -0.687618 1.44907e-08 105453 107550 105659 -103.061 78050 -12137.1 35821 
3.56e-06 5.44337 -0.531034 1.28939e-08 106293 107708 105993 -150.334 60914.4 36778.9 -14722.3 
3.64e-06 5.8693 -0.93943 6.19186e-09 105695 107780 105913 0.211889 -12364.2 35654.5 -5836.71 
3.72e-06 5.73169 -1.08006 -1.90775e-09 105893 107787 106223 19.202 -132060 -6775.67 -112561 
3.8e-06 6.17774 -0.399052 9.52426e-09 105884 107745 105948 -65.265 -23832.9 -66843.2 -56420.3 
3.88e-06 6.58545 -0.186604 5.31747e-09 105972 107988 105932 -153.709 25232.5 47548.7 59757.5 
3.96e-06 8.28438 -0.530292 2.98549e-09 105484 107707 105707 -32.0441 -7821.83 25352.4 82536.8 
4.04e-06 9.29089 -0.216113 3.912e-09 105344 107629 105721 -39.0326 108216 -21557.2 84764.8 
4.12e-06 8.96928 -0.492722 -2.7949e-10 105407 107581 105877 -16.1506 89536.2 -19265 -23185.6 
4.2e-06 9.76801 -0.595204 6.81504e-09 105470 107455 105562 -132.639 -66615.3 621.354 -837.141 
4.28e-06 13.1624 -0.207593 1.05077e-08 105702 107841 105484 -167.017 -41677.3 -78228.2 -52387 
4.36e-06 12.2997 -0.634645 8.84808e-09 105901 107597 105394 -69.3057 -33501 48537.5 -50910.5 
4.44e-06 13.2842 -0.229463 4.09837e-09 106116 107773 105848 -169.283 40175.3 -5168.83 -55546.3 
4.52e-06 14.0535 -0.277247 2.49649e-09 105984 107676 106189 81.0703 -10996.3 -24977.8 -91648.6 
4.6e-06 13.5534 -0.254294 -7.24809e-09 105850 107785 106250 2.00776 27606.5 -49380.8 -132117 
4.68e-06 14.186 -0.35691 1.24158e-08 105845 107577 105509 -59.1208 -31210.5 -11507.2 16636.8 
4.76e-06 13.3547 -0.194971 -4.9016e-09 105957 107865 105888 6.63101 -85221.1 -41518.3 -50985.9 
4.84e-06 12.815 -0.337128 2.38925e-09 105890 107774 105743 65.8767 38023.9 27594.6 9657.36 
4.92e-06 13.5805 -0.830487 5.32014e-09 105392 107723 105606 -68.4843 -25891.1 -34781.9 24843.1 
5e-06 12.1987 -0.261978 5.77655e-09 105247 107649 105654 -38.1912 -20129.7 8094.74 -21306.2 
5.08e-06 11.7093 -0.17713 7.05769e-09 105907 107682 105861 -185.436 -83570.3 -97079.1 60470.8 
5.16e-06 13.066 -0.477755 9.87612e-09 105992 107611 106304 -128.67 -48644.4 -3648.52 -19168.6 
5.24e-06 12.4504 -0.186605 -1.01715e-09 106033 107749 106267 -143.259 124337 26988.4 -51243.6 
5.32e-06 13.007 -0.91742 -5.27042e-09 105471 107660 105481 -150.146 60500.5 47263.9 -95943.8 
5.4e-06 13.1817 -0.899823 2.78184e-09 106067 107731 106126 -40.4434 55640.3 35707.2 19775.4 
5.48e-06 12.9375 -0.395937 -3.54009e-09 105959 107826 105949 -49.7618 23698.9 -39555.6 -116116 
5.56e-06 12.8724 -0.312052 -7.51649e-09 105974 107932 105996 -78.4913 1602.87 -4308.83 -38385.4 
5.64e-06 10.9817 0.0619605 -4.87355e-09 105583 107760 106143 120.543 51858.7 -59358.8 -69874.6 
5.72e-06 11.5228 -0.535002 2.71601e-09 105847 107889 105914 -37.2683 98802.2 45087.3 32267.9 
5.8e-06 12.0925 -0.0981373 -9.36778e-10 105821 107609 106031 -95.733 56364.4 -6792.68 -106585 
5.88e-06 10.7764 -0.31863 2.94418e-09 106445 107887 106308 -102.725 81251.4 57623.4 -162179 
5.96e-06 11.7754 -0.169537 4.6507e-09 106130 107887 106087 -191.979 -8513.43 -19884 -94374.7 
6.04e-06 11.585 -0.588789 -1.28365e-09 105539 107718 105856 -0.447727 36274 27300.7 50980.1 
6.12e-06 13.2915 -0.455158 1.75718e-09 106076 107769 106124 -193.796 32607.4 17627.7 55180.3 
6.2e-06 12.5023 -0.0884648 -1.21616e-08 105385 107615 105563 -78.1738 -58534.4 -46.417 -123738 
6.28e-06 11.6571 -0.34607 1.07036e-08 105338 107599 105302 -42.175 109633 -8751.33 -37013.6 
6.36e-06 12.2906 -0.408425 -3.6796e-09 106308 107837 106346 -14.3356 -21084.8 -19660.6 39115 
6.44e-06 13.0172 -0.198771 6.85564e-09 105827 107687 105849 -136.688 113413 3601.63 27792.1 
6.52e-06 12.7766 -0.154134 1.12651e-08 105944 107860 105771 -195.57 49595.1 -830.561 -62717.5 
6.6e-06 14.4192 -0.259614 -8.67956e-10 105701 107603 105973 6.32586 54360.3 -53648.7 -43672.1 
6.68e-06 13.0983 -0.677219 3.88024e-09 105435 107765 105746 -105.796 12614.9 27105.2 34599.4 
6.76e-06 12.8169 -0.394319 8.07205e-09 105596 107552 105742 -50.762 89793.3 34569.8 -15668.6 
6.84e-06 14.105 -0.438506 5.82758e-09 106036 107883 106180 -45.6694 14133.7 35444.3 17325.8 
6.92e-06 14.267 -0.874984 7.20498e-09 105642 107857 105710 -37.6913 51095.6 50306.9 -16374.7 
7e-06 14.1406 -0.804561 -1.89069e-09 105540 107533 105692 8.52317 41657.7 8487.65 50790.1 
7.08e-06 14.4494 -0.00290872 8.72257e-09 105475 107509 105478 -54.3387 23414.5 -71806.8 -5299.04 
7.16e-06 14.3031 -0.682204 -5.65362e-09 105638 107615 105727 111.736 188857 79671.6 52834.5 
7.24e-06 13.6292 -0.328423 -5.61512e-09 105690 107994 105932 48.5377 91651.4 -2650.29 -12636.1 
7.32e-06 15.1582 -0.172662 -2.99869e-09 105474 107702 105599 -138.698 -104309 -42141.6 1484.69 
7.4e-06 13.4524 0.081108 -7.21669e-11 105982 107752 105920 70.3153 135907 6839.17 71113.9 
7.48e-06 13.7505 0.19403 5.10079e-09 105908 107862 106083 -189.351 161325 7239.33 166556 
7.56e-06 15.2957 -0.544152 -1.09511e-08 105389 107373 105778 27.675 40083.4 -19883 7423.55 
7.64e-06 15.2866 0.218919 1.39009e-08 105954 107977 106338 -92.4911 -20609.1 -38531.1 -74603.9 
7.72e-06 15.2976 -0.368525 8.35681e-09 105632 107855 105912 -292.894 721.603 7488.38 -38888.4 
7.8e-06 14.9129 0.0308835 1.1842e-09 105329 107697 105610 112.676 -96588.1 -50910.1 -122899 
7.88e-06 15.8792 -0.00175447 1.52265e-09 105725 107655 105555 4.30017 -75212.3 -22955.4 -52448.3 
7.96e-06 15.2326 -0.387966 -5.79324e-09 105510 107610 105497 -165.549 -76207.8 28531.6 -96747.1 
8.04e-06 13.6462 -0.552821 7.81066e-10 105804 107834 105916 24.2283 153990 102236 48410.7 
8.12e-06 14.6673 -0.0346577 4.63811e-09 105652 107678 105827 -61.3389 -26258.2 -16511.3 -81200 
8.2e-06 14.4932 0.131985 9.03842e-09 105876 107934 105535 -27.1572 -58885.3 -35716.2 -60812.6 
8.28e-06 14.9315 -0.12216 2.465e-09 105619 107670 105716 -27.2991 -30395.6 -10875 18521.6 
8.36e-06 16.1941 0.0412499 -3.30425e-09 106049 108012 106052 35.2387 -104849 -40372.6 -128462 
8.44e-06 16.5571 -0.148643 9.99407e-11 106386 107893 106304 -12.1269 -15749.3 -21679.3 100414 
8.52e-06 16.3867 -0.287844 3.96131e-09 106213 107566 106095 74.1999 -7829.12 -11283 -66508.4 
8.6e-06 16.5914 0.0449342 -6.21849e-09 105922 107805 105879 40.8969 -101375 -14086.3 98583.3 
8.68e-06 16.8565 -0.473869 3.03204e-09 105686 107747 105586 -157.494 -10463.6 29876.5 -31061.2 
8.76e-06 18.1583 -0.353649 -1.09611e-08 105881 107634 105534 -19.1684 -82752 -8321.53 -7791.14 
8.84e-06 19.0481 0.0334781 -4.13612e-09 105776 107592 105427 -78.0437 -24864.7 4786.72 -29665.6 
8.92e-06 18.3489 -0.269998 1.75591e-09 105926 107741 105703 -122.895 27157.4 -27590.7 -9605.87 
9e-06 18.2435 -0.500576 4.57072e-09 106233 107877 105823 -152.191 65105.1 -9657.2 -26449.6 
9.08e-06 18.4615 -0.221325 1.23168e-08 106179 107924 105662 -136.954 91087 -36689.5 127139 
9.16e-06 18.7234 -0.105775 3.06776e-10 106004 107823 105914 -71.2821 53273.4 31848.7 97923.6 
9.24e-06 19.9003 -0.400402 -1.62281e-09 105723 107956 105634 -73.6065 -87176.6 35765.8 -30240.1 
9.32e-06 19.3456 -0.0619647 -8.78124e-09 106216 107965 106189 -10.9866 28001.2 34903.3 -108368 
9.4e-06 18.6967 -0.16608 9.44236e-09 105766 107826 105728 -25.907 60446.4 -37658.2 60928.4 
9.48e-06 18.6276 -0.387087 3.43679e-09 106091 107745 105667 -115.63 -67798.8 -13058.1 -132925 
9.56e-06 18.7933 -0.430655 -1.41462e-09 105987 107683 105828 -275.329 45427.5 -15864.5 -6132.44 
9.64e-06 19.7145 -0.308425 -8.80661e-10 105919 107949 106163 61.1136 -33184 18784.5 67665.6 
9.72e-06 20.9314 0.00279096 5.60175e-10 105466 107578 105666 -244.731 -106296 -65352.8 -2405.39 
9.8e-06 19.6667 0.221941 -1.67151e-09 106274 108007 105758 41.5681 4879.04 -80526.5 -198329 
9.88e-06 20.0638 0.0710396 -4.13863e-10 105940 107762 105831 -23.441 -59963.8 -137605 -135480 
9.96e-06 19.1224 -0.159024 -3.57557e-09 105974 108030 106128 -1.02251 -75581.6 -202065 32328.3 
