ITEM: TIMESTEP
1000000
ITEM: NUMBER OF CELLS
125
ITEM: BOX BOUNDS pp ss pp
0 0.0001
0 1e-05
0 0.0001
ITEM: CELLS yc f_vel[1] f_vel[2] f_vel[3] f_mom[1] f_mom[2] f_mom[3] f_mom[4] f_q[1] f_q[2] f_q[3] 
4e-08 0.346308 1.20616 1.3581e-09 103062 103969 103109 25.4968 -3360.84 -186981 41797.2 
1.2e-07 1.25508 -0.441886 1.49684e-09 103279 103919 103192 -111.236 -36055.1 79381.1 -62683.8 
2e-07 -0.46731 -0.53586 -3.91926e-09 103345 103680 103435 50.2034 -3928.77 66135.6 44094.2 
2.8e-07 -0.909512 0.284436 -4.94326e-09 103661 104074 103555 -19.515 13255.4 -38131.8 44800.4 
3.6e-07 -1.04261 -0.00761874 3.68186e-09 103203 103681 103518 -148.624 -100096 7093.28 -41514.2 
4.4e-07 -0.849549 0.020074 5.03064e-09 103327 103927 103616 -87.9745 18469.9 4945 -29773.2 
5.2e-07 0.0176082 -0.245398 6.12883e-09 102899 103778 102978 -115.12 -13905.3 34282.7 1640.94 
6e-07 0.339693 0.377486 -7.26062e-09 103310 103669 103252 -60.2584 -73919.7 -23052.7 -24966.6 
6.8e-07 -0.217888 0.166717 1.0029e-08 103181 103519 103158 -161.665 -17255.7 -47956.1 -89136 
7.6e-07 0.490787 0.367581 7.55547e-09 103436 104111 103626 -189.973 -54621.2 -8466.13 -59923.7 
8.4e-07 1.21732 0.403023 1.54062e-08 103324 103882 103119 -37.2419 -44970.9 -29587.5 -44856.3 
9.2e-07 1.82115 -0.0717161 -2.95911e-09 103337 104011 103211 -96.1165 -128985 -30613.4 -65547.7 
1e-06 2.14142 -0.0352451 5.55456e-09 103380 103963 103468 -181.038 -33019.9 5127.08 -7551.61 
1.08e-06 2.8759 -0.138847 -3.58926e-09 103065 103581 102948 -92.0928 -18709.9 64798.3 41324.6 
1.16e-06 3.10079 0.414236 1.26412e-08 103557 103783 103656 -226.074 -27322.6 -96046 105540 
1.24e-06 2.47534 0.596123 6.2774e-09 103060 103640 103189 -74.5928 51377 -55138.3 43212.9 
1.32e-06 4.11822 -0.217798 -2.45362e-10 103456 103662 103241 43.1261 -7139.62 76936.2 55026.5 
1.4e-06 3.02992 -0.11218 -9.46191e-09 103486 104007 103422 -61.6942 -9129.85 26625.7 1829.46 
1.48e-06 3.28546 -0.151055 3.51843e-09 103063 103690 102993 -118.497 11264.6 25545 42544.5 
1.56e-06 3.62462 0.116307 -9.30054e-10 103353 103866 102950 -45.167 64092.2 -13486.8 133365 
1.64e-06 4.73414 -0.0869023 -6.16392e-09 103372 103890 103440 2.8021 26563.5 54593.4 27087 
1.72e-06 3.9451 -0.221621 -2.62564e-09 103249 103824 103242 -2.47948 15626.2 19004.7 -101238 
1.8e-06 3.68769 0.105231 1.2139e-08 102568 103663 102477 46.3231 -2592.83 -24894.1 6203.11 
1.88e-06 4.22651 0.0194444 8.00337e-10 102920 103738 103154 -235.549 4562.99 20884.2 -27605.1 
1.96e-06 4.43523 -0.0755232 3.7556e-09 103237 103852 103271 -163.737 -22023.3 80608.6 5476.46 
2.04e-06 5.14193 0.259982 1.30335e-08 102749 103594 103001 -178.152 -81886.7 -30717.1 -72174.9 
2.12e-06 6.63727 -0.164036 -2.14138e-09 103151 103818 103176 -84.6456 -44823.1 7819.78 -46077.6 
2.2e-06 6.58326 -0.164629 -5.82709e-09 102985 103662 103243 -119.889 -30903.5 -2054.59 -20319 
2.28e-06 7.40508 0.39953 8.08738e-09 103209 103776 103522 -19.2345 -60924.3 -90905.1 45441.4 
2.36e-06 6.92248 -0.353831 -1.22677e-09 103641 103986 103448 -15.4217 -62199.6 -31027.2 -3824.11 
2.44e-06 6.44952 -0.191102 -7.75742e-10 103183 103820 103488 -1.56528 82373 852.138 -6505.42 
2.52e-06 7.11372 0.0783526 4.5095e-09 103315 103993 103829 -157.137 -65393.5 6292.02 42840.7 
2.6e-06 8.21883 0.391165 5.87746e-09 102903 103927 103132 -70.2823 -74259.8 -64379.1 27995 
2.68e-06 7.37429 -0.458822 -1.08694e-08 103699 104035 103306 18.2255 23484.8 43052.4 -25046.5 
2.76e-06 6.56098 -0.175338 1.82316e-09 103222 103586 103232 55.4124 -19768.7 12613.4 -27138 
2.84e-06 7.42291 -0.244062 -3.54582e-09 103214 103871 102975 -130.577 -74030.6 48165.5 60272.4 
2.92e-06 7.15666 -0.147732 1.47325e-09 103080 103913 103272 -29.581 50916.1 23671.4 653.293 
3e-06 6.9762 -0.585627 -7.3384e-12 103270 103827 103332 -94.3054 37706.2 86730.6 122602 
3.08e-06 6.07705 0.0516758 3.00318e-09 103161 103782 103370 35.2835 64550.6 4413.27 10180.6 
3.16e-06 6.71046 0.564557 1.41156e-10 103488 103772 103395 -10.5057 59672.3 -20336.6 -1013.55 
3.24e-06 6.78333 -0.0696453 4.67523e-09 103074 103696 103018 -232.196 -3578.13 10168.3 -4297.65 
3.32e-06 7.15056 -0.222138 -2.43868e-09 103430 103896 103322 -70.645 -19127.9 16626.3 -9841.46 
3.4e-06 7.07726 0.30619 4.19348e-09 102782 103612 103085 -201.604 -46511.6 14945.7 72094.3 
3.48e-06 6.89081 -0.574256 1.09467e-08 103235 103829 103523 -87.1298 -15949.7 65954.6 -37452.9 
3.56e-06 7.546 -0.248184 -3.08333e-09 103310 103711 103464 -116.586 -40668.6 -36992.9 17874.7 
3.64e-06 7.24855 0.297113 2.00583e-09 103414 104026 103352 -73.2788 20132.8 4624.01 43089.3 
3.72e-06 7.99381 0.00758042 4.82391e-09 103188 103736 103257 -179.948 -21141.4 -10113.8 71245.1 
3.8e-06 8.13486 0.346495 4.98478e-09 103218 104012 103182 -241.573 28648.5 -46336.1 63663.3 
3.88e-06 8.87909 0.288435 9.41952e-09 103580 104021 103246 -92.2032 18785.3 -62839.3 8199.46 
3.96e-06 8.85655 0.336305 -7.07966e-09 102839 103793 103192 69.1757 65012.5 -48602.3 37282.6 
4.04e-06 9.22894 -0.856095 6.85335e-09 102947 104066 103388 -62.5829 50697.2 15236.7 4539.71 
4.12e-06 8.69913 0.115064 2.19863e-09 103508 103941 103403 -96.653 40950.2 -27056.1 -26279.5 
4.2e-06 8.21922 0.0663512 -8.29268e-10 103130 103649 102977 -131.189 62580.3 1823.36 -42060.2 
4.28e-06 8.49474 -0.281607 -5.77699e-09 103579 103861 103541 -74.4682 86350.6 -12872 92175.9 
4.36e-06 7.41534 -0.205711 -1.48276e-08 103065 103630 102925 -36.6831 64124.5 3580.63 -12020.4 
4.44e-06 7.98883 -0.10131 -1.01098e-08 102938 103564 102858 45.253 31359.7 27967.5 -18093.5 
4.52e-06 7.03713 0.316514 7.73483e-09 103341 103739 103133 -19.6763 62872.8 -33488.9 60779.2 
4.6e-06 8.1829 0.0125927 7.78675e-09 103558 104013 103591 -87.0925 4639.2 371.761 -23654.5 
4.68e-06 9.13458 0.403403 1.8944e-09 103173 103702 102794 -135.789 30944 -65144 58829.4 
4.76e-06 10.431 0.107752 2.50153e-09 103486 103949 103192 -83.2052 -11040 7900.37 71789.2 
4.84e-06 10.6356 -0.0470609 -5.46041e-10 103220 104080 103284 -69.7846 -10884.2 1120.23 17359.1 
4.92e-06 10.6604 -0.200198 5.6188e-09 102772 103857 103013 -62.6594 -833.313 52456.3 -47818.6 
5e-06 11.3735 0.389659 4.92472e-12 103337 103723 103089 -63.3471 -45336.3 -12310 -33081.5 
5.08e-06 11.4078 0.338841 5.68182e-09 102956 103776 102882 12.0509 -62393.5 -41044.7 -43489.1 
5.16e-06 12.1328 0.034736 1.27918e-09 103298 103952 103440 12.8503 -33696.7 -14295.8 45110.1 
5.24e-06 12.0911 0.0054214 -6.3879e-09 103118 103896 103260 73.7227 -5996.16 58789.4 123173 
5.32e-06 12.3246 -0.394153 -2.1007e-09 102881 103492 102833 -90.9279 15395.6 52603.9 -36648.7 
5.4e-06 12.5957 0.253996 9.91903e-09 103266 103775 103604 -72.4747 -44685.5 21125 6292.5 
5.48e-06 12.1858 -0.43209 -4.59974e-10 103591 104093 103545 55.7085 126535 51877.6 18899.5 
5.56e-06 11.7809 0.12867 3.29382e-09 103144 103624 102811 -154.465 41897.8 -43458.9 -59490.8 
5.64e-06 12.8983 -0.00745955 -3.28019e-09 103301 103991 103257 -120.711 79441.8 -19715.1 -44607 
5.72e-06 13.3248 -0.0795785 3.86402e-09 103319 103859 103471 -104.981 -52683.2 -50504.3 -89061.4 
5.8e-06 12.0759 -0.187269 -6.5685e-09 102988 103741 102979 143.514 -2104 59781.2 -984.01 
5.88e-06 12.7771 0.36827 -2.42011e-09 102788 103648 102651 21.2796 -28138.3 -42013.5 -56653.2 
5.96e-06 11.6154 -0.141984 4.33662e-10 103379 103945 103504 -93.3392 8095.65 34239.7 -637.901 
6.04e-06 11.9775 -0.372337 2.22756e-09 102859 103749 103025 -199.786 -4819.66 1013.26 17987.2 
6.12e-06 12.012 0.171887 1.44724e-10 103315 103869 103259 -23.6119 61240.7 -10549.5 5522.15 
6.2e-06 13.2332 0.0263281 3.91584e-09 103110 103671 103215 29.4826 -11482.6 -79623.7 -19044.3 
6.28e-06 13.4628 0.036119 3.90732e-09 103135 103850 103398 -176.903 -9931.46 -49314.5 -66968.8 
6.36e-06 13.8409 0.12512 2.88353e-09 103144 103802 103277 -92.1818 -20776.2 14919.9 11317.9 
6.44e-06 14.3593 0.334396 1.18951e-09 103008 103742 103108 -48.7043 -28464.3 15581 -4396.41 
6.52e-06 13.0533 -0.155397 -5.48441e-09 102881 103881 102888 -32.8101 138726 41407.3 -80832.3 
6.6e-06 13.5579 -0.414128 2.35135e-09 102827 103524 102625 -246.693 43150 21594.4 61306.9 
6.68e-06 14.4747 0.0657366 5.97675e-09 103467 103772 103055 -101.916 66827.6 20364.1 -27060 
6.76e-06 14.1664 0.361776 -4.00963e-09 103054 103432 102956 -177.698 87214.6 1877.88 -8492.15 
6.84e-06 14.5965 -0.0315708 2.70406e-09 103148 103739 102863 -29.1353 -3438.45 45112 -63981.1 
6.92e-06 15.1346 0.120358 -3.3564e-09 103588 104011 103383 64.9845 -55652.1 16278.6 1660.91 
7e-06 13.8582 -0.0202845 -1.51493e-09 103523 104220 103440 -4.31754 40832.2 17360.9 -4236.93 
7.08e-06 14.8221 -0.0193192 4.72429e-09 103062 103794 103061 -17.431 14051.4 14821.8 -56216.7 
7.16e-06 14.3822 -0.200072 -2.9312e-09 103121 104090 103291 114.775 60030.2 20696.3 -12848 
7.24e-06 15.0184 0.0527498 3.91656e-09 103227 103816 103116 17.1036 -5882.23 -43948 93573.5 
7.32e-06 14.1056 0.127596 -9.467e-09 103160 103486 103009 56.8377 20201.9 27670.2 70559.2 
7.4e-06 14.9316 0.328443 5.77284e-09 103330 104005 103583 -9.84421 -32344.5 -8544.93 43456.6 
7.48e-06 14.4761 0.202431 3.59625e-09 102805 103610 102955 -60.3387 -51600.6 -49100 41175.4 
7.56e-06 15.4845 -0.085748 1.77133e-09 103296 103988 103290 -14.7794 56078.3 12319.7 -70404.7 
7.64e-06 15.0331 -0.287532 -2.3665e-09 102948 103464 102755 53.8422 59161.5 23310 -46622.7 
7.72e-06 14.2498 0.0584845 -3.86281e-09 103594 103955 103349 56.0562 65046.9 6165.52 36088.6 
7.8e-06 15.3383 -0.0675409 -5.14448e-10 103166 103590 102976 49.4107 -49348.4 27560.9 41865.9 
7.88e-06 15.7065 0.651898 7.46754e-09 103352 104075 102922 -191.284 33756.6 12818.2 46681.5 
7.96e-06 16.4827 -0.220275 6.96841e-09 103185 103698 103152 -93.6892 45592.6 -8515.11 19573.3 
8.04e-06 16.9677 0.25887 5.18632e-10 103444 103908 103479 -97.6491 -23283.9 -70259.7 20456.3 
8.12e-06 17.8502 -0.650975 2.83889e-09 103455 103961 103393 -84.9191 24554.7 41506.1 15781.5 
8.2e-06 17.0877 0.0573709 -9.50548e-10 103540 104048 103643 -102.337 -4244.26 -59934.8 -46088.5 
8.28e-06 16.5408 0.194578 -2.43672e-10 103078 103761 103044 -110.896 100292 -23114.4 -7720.07 
8.36e-06 17.0705 -0.233301 8.22086e-09 103176 103789 103377 -108.006 121054 23904.7 -39698.6 
8.44e-06 17.4988 0.36686 1.52292e-09 103205 103608 103294 1.10709 4223.32 -23569.7 -22789.5 
8.52e-06 18.0451 -0.292875 1.30382e-09 103152 103732 103011 -0.612617 -8369.05 43262.3 -101129 
8.6e-06 18.1898 0.485329 1.71377e-09 102561 103522 102994 -85.3727 -21092.4 -34693.4 -81055.3 
8.68e-06 18.2054 0.0855796 -5.46906e-09 103729 104336 103923 16.2196 41076.5 -47103.8 93073.6 
8.76e-06 17.8575 0.139644 3.66926e-10 103277 103799 103382 -69.7132 -21397.2 -5122.7 48330.1 
8.84e-06 17.9443 0.00736805 -1.08162e-09 104013 104053 103790 -110.018 1506.88 -5263.85 -23976.4 
8.92e-06 18.0776 0.301545 -3.79645e-09 103281 103694 103443 -13.3143 118963 -26165.9 -44813.2 
9e-06 18.648 -0.42866 1.43754e-09 103303 104066 103221 -73.42 68903.5 73977.8 -8611.83 
9.08e-06 18.3477 -0.284511 -9.31586e-09 102820 103706 102903 128.628 52441.1 68091 -22576.4 
9.16e-06 18.7049 -0.0525793 -5.45882e-09 103438 103972 103419 -37.0398 22988.3 28055.4 14503.8 
9.24e-06 19.0849 -0.295742 -5.04603e-09 103270 103638 102879 -89.488 -76025 67504.8 34530.4 
9.32e-06 18.1761 -0.0187293 3.2371e-09 103398 104093 103396 21.9943 -4653.19 55334.8 -27109.9 
9.4e-06 18.4173 0.132612 8.00324e-09 103574 104115 103666 91.6905 -54967.2 -19240.5 -61768 
9.48e-06 18.2163 -0.176647 -6.5362e-09 103099 103877 103085 79.2709 77104.5 -18999.8 29800.6 
9.56e-06 18.2938 0.00398333 -3.35472e-09 103410 103758 103471 39.9129 -4647.15 23567.6 77978.1 
9.64e-06 18.4046 -0.267128 5.27724e-09 103160 103722 102810 -18.1467 -31712.5 52114.6 53399 
9.72e-06 18.0881 0.0157487 -7.09779e-10 102856 103409 102628 -18.5845 1616.54 24826.7 12142.2 
9.8e-06 19.1658 0.538576 -7.94554e-09 103294 103892 103251 -48.961 -71842 -79038.4 28075.4 
9.88e-06 18.504 -0.070512 3.05717e-09 103520 103916 103101 -85.0154 62587.3 -7238.28 -22237.3 
9.96e-06 19.1813 -1.02613 1.15289e-08 103269 103970 102936 8.25998 -7320.07 104553 8210.13 
