ITEM: TIMESTEP
1000000
ITEM: NUMBER OF CELLS
125
ITEM: BOX BOUNDS pp ss pp
0 0.0001
0 1e-05
0 0.0001
ITEM: CELLS yc f_vel[1] f_vel[2] f_vel[3] f_mom[1] f_mom[2] f_mom[3] f_mom[4] f_q[1] f_q[2] f_q[3] 
4e-08 1.29841 0.00861425 -1.95305e-09 20029.6 18039.8 19923.9 -40.3285 -6120.4 719.784 10451.3 
1.2e-07 1.60782 -0.0112134 2.54413e-09 18017.2 17944.3 18005.4 -33.5529 -14937.6 1489.61 -22367.4 
2e-07 0.933912 0.0223812 2.68933e-09 18096.4 17940.5 18021.2 -31.0032 -6654.19 3120.02 -12174.4 
2.8e-07 1.02671 0.0424582 -1.36935e-09 17981.3 17941 17951.8 -37.6382 20477.9 918.61 -1492.68 
3.6e-07 0.722795 0.0142953 -7.24303e-09 17884.2 17940.4 17982.7 -39.9155 18432.7 2846.39 -8495.87 
4.4e-07 1.16962 0.00159022 -5.67944e-09 17941.2 17939.6 17880.4 -41.406 9608.49 1567.16 -7951.61 
5.2e-07 1.16172 0.0113539 5.59622e-09 17821.8 17935.4 17816.9 -42.7353 27365.5 -503.946 -4662.25 
6e-07 0.423724 0.0102121 1.0493e-09 17874.9 17936.9 17881.5 -34.6796 37966.1 -1956.96 8367.5 
6.8e-07 1.10902 0.0341853 4.75607e-09 17880.8 17934 17880.1 -36.363 24131.8 -460.7 1442.26 
7.6e-07 1.87621 -0.00457217 4.05409e-09 17726.3 17932.6 17733.2 -34.9366 -3248.01 -154.384 -9084.78 
8.4e-07 2.62236 -0.00112333 -4.06955e-09 17832.4 17938.6 17809.3 -34.5295 3993.84 520.236 -16190.1 
9.2e-07 3.19879 -0.0100355 -7.63001e-10 17765.7 17929.8 17854 -37.6864 -7415.02 2587.51 -15648.5 
1e-06 2.99987 0.022669 1.87976e-09 17783 17933.8 17856.9 -36.7964 23495.1 834.436 -14861.8 
1.08e-06 4.58418 0.0073881 3.95508e-09 17805.6 17928.7 17826.9 -35.4109 -181.546 -1717.14 -1445.41 
1.16e-06 3.88011 0.0117004 -8.66218e-09 17763.6 17932.1 17772.5 -40.1659 -8455.81 -1281.37 7196.23 
1.24e-06 2.57521 -0.0082566 -7.94284e-09 17698.5 17925 17767.2 -36.8727 12674.3 1922.01 -5815.84 
1.32e-06 3.54287 0.0268694 -8.9229e-09 17651 17925.6 17741.5 -38.4715 -1696.59 -489.943 -6937.46 
1.4e-06 3.95329 0.0172868 9.31317e-09 17762.4 17932.2 17752.5 -32.6089 2500.92 1389 -13543.8 
1.48e-06 3.92742 0.02962 8.36485e-09 17811.4 17935.5 17781.3 -37.5983 17909.1 -1096.07 -12585.8 
1.56e-06 4.47261 0.0268663 -8.50114e-09 17776.3 17923.9 17809.9 -35.7958 -3917.79 2855.18 -10355.2 
1.64e-06 3.75472 0.0172743 -2.96211e-10 17745.8 17923.5 17689.4 -38.2157 25561.3 3254.15 -288.916 
1.72e-06 4.11167 0.029152 -5.17534e-10 17872.7 17934.1 17794.5 -38.2024 26676 1607.43 4658.07 
1.8e-06 6.67225 0.0204801 1.35971e-09 17799.5 17918.7 17814.3 -36.4573 -7300.01 734.64 15765.8 
1.88e-06 6.67237 0.043232 -2.77247e-09 17827.1 17925.5 17745.8 -41.6558 4013.19 -9.37485 6607.24 
1.96e-06 6.03031 -0.00289541 -8.10175e-09 17806.4 17925.2 17879.8 -36.4164 -1589.85 2569.7 -5746.92 
2.04e-06 6.21253 0.0888737 -2.84959e-09 17765.4 17928.8 17836.6 -39.711 11788.5 -1892.76 -1907.19 
2.12e-06 5.98867 0.0359591 1.4252e-09 17808.2 17924.4 17828 -35.2173 -777.469 -1048.43 903.357 
2.2e-06 6.10239 0.0433748 -5.71363e-09 17822.1 17919.4 17746.4 -37.3171 3611.89 -2551.3 -8016.83 
2.28e-06 6.76808 0.0492027 1.01353e-08 17751.6 17926.5 17815.4 -36.5153 -2274.1 -467.982 8698.77 
2.36e-06 7.47485 0.0352661 -1.66413e-09 17772.9 17926 17862.1 -42.9605 -23570.7 -763.827 -13060.4 
2.44e-06 7.98439 0.0707687 1.15788e-09 17770.8 17925.7 17771.4 -38.2555 -34976.2 345.704 -474.656 
2.52e-06 8.2351 0.0559384 -4.09601e-09 17784.7 17925.3 17756.2 -39.1701 -50495.2 -499.896 5330.15 
2.6e-06 7.89861 0.0601957 4.54684e-09 17721.4 17923.2 17794.6 -32.4191 -34920.1 90.0774 -1616.25 
2.68e-06 7.91691 0.0700521 -1.47523e-08 17680.1 17920.9 17744.8 -46.3808 -16122.7 -740.638 -4994.39 
2.76e-06 7.56355 0.0547207 2.29419e-09 17800.4 17922 17721.9 -40.7562 6754.22 -328.64 -6641.78 
2.84e-06 8.08384 0.0580699 -3.11776e-10 17774.4 17920.7 17806.1 -40.8344 -13629.9 613.892 -10473.4 
2.92e-06 8.15274 0.0355095 -7.27707e-09 17824 17921 17777.7 -38.865 -21357.5 -1440.31 2847.59 
3e-06 7.49157 0.060992 5.19372e-09 17754.9 17924.7 17807.6 -45 -240.71 -147.274 -5290.54 
3.08e-06 8.51185 0.0550615 -3.104e-09 17813.9 17928.8 17723.4 -37.5236 -3402.69 515.627 11446.7 
3.16e-06 8.57064 0.0508388 -2.36109e-09 17755 17928.8 17894.9 -39.9995 -17815.2 -1176.99 12763.1 
3.24e-06 7.85241 0.0591495 6.88794e-10 17802.8 17925.9 17820.9 -41.3841 -18123.1 3613.49 14683 
3.32e-06 8.40498 0.0424976 6.50892e-10 17683.3 17921.8 17715.2 -37.3893 12847.4 1087.7 17595.7 
3.4e-06 8.55215 0.0419566 -9.67045e-09 17706.7 17912.9 17785.8 -47.1397 11744 1537.16 12926.6 
3.48e-06 8.70137 0.0564627 -1.07308e-08 17762.2 17926.7 17809.4 -45.329 3464.47 3441.56 25559.4 
3.56e-06 8.28492 0.02519 2.83794e-09 17884.6 17937.1 17927.4 -42.2339 14030.4 -446.224 28377.5 
3.64e-06 9.01616 0.0626299 -1.07299e-08 17787.4 17933.8 17776.3 -40.3083 11012.3 1685.95 -4015.71 
3.72e-06 9.50864 0.0196104 -1.08589e-10 17781.6 17918.2 17836.4 -33.7994 7203.38 -496.446 -8450.35 
3.8e-06 10.1674 0.0595756 -3.26196e-09 17861.7 17935.2 17841.1 -37.6488 -8509.49 -1316.99 -20968.6 
3.88e-06 9.39564 0.0374735 4.72597e-09 17783 17929.5 17789.4 -34.4366 3614.4 3595.54 -12141.4 
3.96e-06 10.0308 0.0522069 -1.18182e-08 17753.9 17916.4 17812.3 -46.1153 1129.85 727.548 4972.18 
4.04e-06 10.0966 0.0598976 -1.35751e-11 17863.9 17929.9 17774.3 -38.4486 1548.79 1905.7 -7663.2 
4.12e-06 10.4796 0.0455724 -2.60436e-09 17853.8 17923.9 17749.3 -49.5164 -11335.7 1152.88 6080.9 
4.2e-06 9.86471 0.050229 -1.20025e-08 17795.9 17933.2 17794.2 -40.8907 7989.87 402.203 19145.8 
4.28e-06 9.92082 0.0513765 1.64939e-09 17885.1 17921.4 17831 -41.6284 -4195.42 722.085 9511.85 
4.36e-06 9.69023 0.0396108 -4.09168e-09 17865.8 17921.7 17808.2 -42.6871 11298.6 356.345 1689.55 
4.44e-06 10.9572 0.0383814 1.2134e-08 17899.5 17925.7 17805.7 -36.8451 5641.19 -1351.74 22064.8 
4.52e-06 10.7026 0.0408529 1.78827e-10 17920.6 17930.3 17850.8 -34.1963 -8036.44 2095.18 558.465 
4.6e-06 10.529 0.05331 -1.0503e-08 17797.4 17925.8 17777.1 -47.935 17561.8 -1427.12 -4086.92 
4.68e-06 10.8329 0.0374806 3.8732e-09 17836.1 17932.9 17788 -40.4344 -5577.66 -696.963 -17571.6 
4.76e-06 10.4272 0.0581553 1.61192e-08 17754.1 17922 17738.8 -34.7408 9631.38 692.96 -3912.12 
4.84e-06 10.9115 0.0204156 -2.47841e-09 17800.6 17928.2 17799.8 -43.3222 -16435.6 2373.51 6401.14 
4.92e-06 10.4444 0.0433263 -5.89857e-09 17853.9 17931.2 17862.9 -37.6881 1160.52 -233.048 26770.6 
5e-06 10.3081 0.0652725 7.55828e-09 17815.2 17934.5 17863.9 -37.6054 8442.34 845.778 9229.69 
5.08e-06 10.8505 0.0516713 -1.69707e-09 17749.5 17912.6 17733.3 -45.3184 1984.3 -294.241 4066.79 
5.16e-06 10.1214 0.0657812 -9.9344e-09 17842.8 17920.6 17855.5 -44.4697 21227.1 602.963 -118.526 
5.24e-06 10.6913 0.0497088 4.72414e-09 17787.2 17919.5 17757.3 -32.4176 -9121.5 2105.8 -19737.7 
5.32e-06 9.64737 0.0488461 -1.40424e-10 17791.1 17918.4 17840.7 -37.0993 20767.9 -1052.86 -16929.7 
5.4e-06 12.3349 0.0469132 -6.84431e-09 17740.6 17924.6 17806.8 -39.6737 5462.49 3.55349 -1969.25 
5.48e-06 10.803 0.0464951 2.24556e-09 17766.5 17922.7 17813.3 -39.4996 14557.1 569.316 18279.2 
5.56e-06 11.3256 0.0566442 -4.78634e-10 17719.1 17923.2 17658.2 -40.041 11504.3 -576.797 762.792 
5.64e-06 11.8041 0.0611219 -6.82072e-09 17792.7 17919.9 17789.4 -43.9938 7468.92 -867.55 -4424.43 
5.72e-06 11.9723 0.035599 -1.23346e-09 17777.4 17926.7 17800.5 -46.8816 9053 -1248.26 -11246.5 
5.8e-06 12.2256 0.0637107 7.2158e-10 17791.4 17927.6 17837.2 -36.0356 6446.18 -716.958 -25137.7 
5.88e-06 13.1625 0.0399959 3.7909e-09 17674.8 17921.5 17736.3 -42.7614 -8068.28 2343.09 -30647.8 
5.96e-06 12.7571 0.0402981 1.23272e-10 17836.1 17925.7 17929.8 -43.6719 -68.008 253.55 -5761.46 
6.04e-06 13.8302 0.0359406 6.53574e-09 17676.9 17911.7 17698.7 -35.8971 -21567.3 1210.04 5049.79 
6.12e-06 14.1321 0.0457179 -1.04321e-09 17820.1 17929.5 17850.8 -38.9969 -9846.95 1043.03 7061.04 
6.2e-06 13.4896 0.0269594 -8.42333e-09 17763.3 17922.3 17763.3 -42.1771 5134.2 811.986 -9234.01 
6.28e-06 13.9815 0.0435281 8.38346e-10 17827.6 17933.3 17758.2 -34.0292 -7902.98 3398.29 -30482.2 
6.36e-06 13.456 0.07349 -2.44833e-09 17835 17929.8 17806.4 -43.575 13787.2 698.595 -15848 
6.44e-06 14.6303 0.0736574 8.17387e-09 17817.1 17926.1 17775.5 -35.455 -151.946 997.205 -4292.51 
6.52e-06 14.8331 0.0220497 -1.24737e-09 17782.5 17916.6 17755.3 -38.2425 14404.4 565.317 -1857.08 
6.6e-06 15.5953 0.0329689 7.25183e-09 17729.7 17922.6 17758.3 -33.2213 -20681.1 -520.239 -17391.4 
6.68e-06 15.2988 0.0517125 -5.92988e-09 17764.2 17926.6 17703.7 -41.959 -8068.02 2829.41 -18886.2 
6.76e-06 15.935 0.0203152 2.32738e-08 17755.4 17926.6 17785.7 -33.082 -23606.8 1097.34 8437.44 
6.84e-06 16.5188 0.0401791 -1.05366e-08 17823.5 17925.7 17755.8 -38.4389 -6264.78 -859.477 9843.11 
6.92e-06 16.0252 0.0687981 -3.57892e-09 17852.7 17924.1 17844.1 -48.433 -10541.7 1582.16 -4866.36 
7e-06 16.2495 0.0306096 -5.42369e-10 17846.6 17933.1 17867.9 -37.1153 -11571.2 417.859 -950.902 
7.08e-06 15.2832 0.0328434 1.64171e-09 17758.3 17920.9 17760.4 -37.0607 -627.741 2547.75 -16889.5 
7.16e-06 15.1747 0.0363931 3.62957e-09 17847.6 17928.7 17824.1 -34.0792 -2348.15 1034.18 1713.74 
7.24e-06 15.6272 0.046015 -6.4242e-09 17747.1 17918.5 17831.7 -44.2959 4998.15 1444.01 -18253 
7.32e-06 15.6932 0.0446467 8.51552e-09 17831.7 17930.6 17948.9 -36.409 -7554.71 1232.92 24104.9 
7.4e-06 15.267 0.026082 -8.04323e-09 17781.1 17925.3 17819.2 -41.6508 11773.7 2398.34 -14956.5 
7.48e-06 15.6142 0.049465 -6.85225e-11 17778.6 17921.3 17800 -42.9313 -4266.31 1920.75 -9911.04 
7.56e-06 15.8023 0.035033 8.2729e-10 17877.4 17936.1 17868.1 -40.4671 -8648.26 -2943.34 9341.79 
7.64e-06 15.7107 0.0414698 -1.07941e-08 17901.4 17932.6 17900.1 -40.3296 -8679.18 1778.09 -4880.16 
7.72e-06 15.1287 0.0519937 6.50484e-09 17794.9 17935.7 17828.5 -40.4129 7176.41 -534.087 -13240.4 
7.8e-06 15.049 0.053032 7.75202e-10 17765.4 17927.6 17673.2 -34.4282 5876.51 926.269 21465.6 
7.88e-06 15.3039 0.0614298 1.29661e-09 17784.3 17927.6 17817.5 -36.9765 16043.7 -3334.29 4431.57 
7.96e-06 16.5649 0.0715825 -6.88617e-09 17811.2 17933 17747.7 -41.0697 -113.893 -1531.79 11639 
8.04e-06 16.3068 0.0437072 -7.46845e-09 17650.3 17923.6 17685.1 -39.8743 -7507.88 1549.03 5558.59 
8.12e-06 16.8208 0.041793 -1.08619e-09 17847.5 17921.5 17790.5 -42.7768 -4530.46 -812.712 -3672.59 
8.2e-06 15.8231 0.0474925 -6.62974e-09 17961.7 17931.4 17885.2 -38.8673 22540.1 511.239 -4804.51 
8.28e-06 17.4083 0.0450218 -5.07317e-09 17831.7 17933.2 17831.1 -43.0245 -9538.71 880.186 -2858.57 
8.36e-06 16.2211 0.0340212 -1.67792e-09 17719.7 17931.3 17674.5 -43.0756 15219.9 1129.35 -1754.84 
8.44e-06 16.9906 0.0401868 -7.48304e-09 17769.5 17926.7 17722.8 -45.9902 -7650.56 -686.211 -13426.7 
8.52e-06 17.2716 0.0426936 1.00668e-08 17955.6 17933.3 17832.6 -37.6834 -12729.8 2296.93 -18418.7 
8.6e-06 16.7564 0.0304048 -5.16083e-09 17798.4 17927.5 17766.7 -38.891 9470.22 35.9103 -27942.4 
8.68e-06 17.8507 0.0483806 -5.74122e-10 17830.6 17933.7 17803.5 -37.1416 7251.55 -722.89 -31451.4 
8.76e-06 17.5974 0.0423247 5.22959e-10 17861.5 17929 17827.7 -37.1273 18802.8 -2108.86 -30166.5 
8.84e-06 17.7661 0.0182472 -8.87585e-09 17855.6 17934.4 17751.1 -37.9231 3576.4 771.365 -35248.9 
8.92e-06 17.8901 0.0368645 -1.93516e-09 17887 17939.1 17879.1 -48.8915 -17365.2 1604.92 -12932.9 
9e-06 17.5293 0.0198271 2.06686e-09 17973.8 17944.4 17940.2 -41.8996 -1328.85 -1139.83 -13539 
9.08e-06 17.7322 0.041237 -1.01872e-09 17920.7 17938.7 17980.9 -39.4254 -10585.4 1296.26 6021.17 
9.16e-06 17.967 0.0223915 2.62755e-09 17910.8 17931.4 17957.4 -38.409 43.974 665.9 21171.4 
9.24e-06 19.1841 0.00614473 -1.49531e-09 17836.2 17923.3 17767.1 -38.9022 -29542.6 3870.83 6516.98 
9.32e-06 18.6848 0.0393063 -2.89071e-09 17936.5 17942.3 17920.8 -38.3942 2766.29 1604.38 -2992.76 
9.4e-06 18.2889 -0.0100249 -4.90831e-09 17901.1 17929.3 17853 -41.9089 5891.85 -3705.64 9464.93 
9.48e-06 19.5511 0.0140012 -3.60066e-09 17978.8 17940.4 17941.7 -42.3889 -9293.71 -386.83 -10267.4 
9.56e-06 19.5288 0.00100014 -4.03825e-09 17870.5 17937.4 17867 -42.0708 5061.57 -432.566 -9566.34 
9.64e-06 19.1132 0.0196575 -2.937e-11 17928.4 17940.3 17901.8 -43.6399 -4630.43 3210.54 -36995.2 
9.72e-06 20.0595 0.00946152 4.43508e-09 18066.5 17938.4 18113.5 -35.6438 -12243.7 674.627 -26971 
9.8e-06 20.3596 0.00179028 -8.30208e-09 18116.9 17939.9 18010.1 -42.484 -9554.07 2154.83 -6164.19 
9.88e-06 19.7091 0.00165878 -1.0087e-08 17959.9 17932.7 17924.3 -45.0181 -20192 200.102 -2219.77 
9.96e-06 19.9268 -0.00541235 1.26626e-08 19920.3 18036.4 19988.7 -32.0982 -27434.8 3963.65 4312.85 
