ITEM: TIMESTEP
1000000
ITEM: NUMBER OF CELLS
125
ITEM: BOX BOUNDS pp ss pp
0 0.0001
0 1e-05
0 0.0001
ITEM: CELLS yc f_vel[1] f_vel[2] f_vel[3] f_mom[1] f_mom[2] f_mom[3] f_mom[4] f_q[1] f_q[2] f_q[3] 
4e-08 -0.6701 -0.092997 4.23967e-09 101884 102652 101604 -7.21077 -24212.1 59080.3 -43586.5 
1.2e-07 -1.78442 0.0852258 -1.02637e-08 101669 102297 101534 116.179 88489.5 12715.5 7559.56 
2e-07 -2.3862 -0.165858 3.66827e-09 102004 102802 102289 -97.7944 83857.7 46785.1 -18596.9 
2.8e-07 -1.82537 0.0615461 3.45541e-10 102069 102534 101749 -97.1896 129794 34269.6 24630.5 
3.6e-07 -1.22061 -0.00122463 -4.53394e-09 101957 102510 102199 13.2642 -7310.02 11121.8 -11575.3 
4.4e-07 -1.54458 0.0750184 -5.34214e-09 101910 102479 101845 36.1388 7355.56 15015 67498.2 
5.2e-07 -1.34793 0.18398 3.12119e-09 101955 102379 101899 -141.151 -25771.2 21056.9 -33057.9 
6e-07 -1.28896 0.139199 -9.84349e-10 102548 102783 102434 -180.404 59821.6 -17426.8 14065.3 
6.8e-07 -0.462129 -0.0803369 6.23744e-09 102030 102409 102119 -123.942 39423.6 49344.1 61051.9 
7.6e-07 -0.605181 0.853163 -9.43122e-09 102238 102778 102277 -51.4347 102366 -61592.7 -2583.24 
8.4e-07 0.879306 -0.306426 -1.61507e-09 102275 102738 102187 85.8134 11268.3 50862.5 51226.9 
9.2e-07 0.933862 -0.0755157 8.23973e-09 101970 102644 102181 -184.724 23980.3 24920.8 26480.2 
1e-06 0.882502 0.0947374 -4.1476e-09 101807 102559 102040 -135.54 -20979.7 38769.1 -65414.8 
1.08e-06 1.15243 -0.182211 3.14554e-10 102167 102477 101955 -27.2819 -43731.9 31454 -75797 
1.16e-06 1.13303 -0.481905 -8.35554e-09 102244 102745 102415 -36.6806 25054.5 97371.6 95763.8 
1.24e-06 1.97871 -0.0425947 1.05529e-08 102198 102556 102309 -45.1915 -43223 67298.3 -20134.1 
1.32e-06 1.19612 -0.229833 2.93609e-09 102815 102818 102339 -24.5905 -11881 19745.1 -51887.9 
1.4e-06 1.22134 0.0863126 -9.51964e-10 102218 102698 102336 39.9194 48258.4 -25474.4 -11726.6 
1.48e-06 0.782604 0.000489361 -7.0589e-09 102422 102885 102318 84.5727 -29934.1 36668.6 -42583.1 
1.56e-06 1.1751 0.0882869 5.64461e-09 101879 102604 101967 -149.184 26330.7 24379.1 -29923.5 
1.64e-06 1.62008 0.206072 6.72211e-09 102358 102725 102342 -163.072 6608.35 -28815.9 -63440.6 
1.72e-06 2.61375 0.174265 4.51327e-11 101990 102592 101906 11.656 -13939.3 -17098.2 14848 
1.8e-06 2.55343 -0.216818 4.51723e-09 102228 102890 102189 -112.409 -51159.6 53145.7 -44829.4 
1.88e-06 2.2856 -0.326165 -2.27454e-09 102255 102765 102286 69.3751 -76320.1 59504.6 -583.208 
1.96e-06 2.9259 -0.122672 -2.36801e-09 101618 102582 101824 -42.0052 315.523 85.6732 -74318.5 
2.04e-06 3.25248 -0.22174 7.96104e-09 102338 102882 102577 -163.541 -26726.3 44709.9 -25570.8 
2.12e-06 3.78383 0.331239 4.45808e-09 102173 102655 102435 -85.7482 -14607 -6340.51 22609.9 
2.2e-06 4.36693 0.117349 8.30432e-09 102241 102678 101999 -27.8637 -87060.2 1653.74 15349.3 
2.28e-06 3.79335 0.0514644 -4.58455e-09 102317 102751 102014 6.42369 -9844.34 31124.2 -21482 
2.36e-06 2.9003 0.152373 1.85405e-09 102459 102755 102144 -5.06833 -19583 58885.9 -35459.8 
2.44e-06 3.04781 0.0128303 -8.01598e-09 102391 102844 102318 -65.8725 43012.1 26720.3 31510.1 
2.52e-06 4.18224 -0.0496985 1.97706e-09 102135 102699 102081 -79.4609 11489.9 40001.5 10162 
2.6e-06 4.129 0.479027 -1.17756e-10 102183 102665 102468 -67.4729 13098.4 -23155.8 5728.38 
2.68e-06 4.44785 0.118408 -2.43461e-09 102440 102626 102444 -51.2913 -32777.4 -6479.99 96581.5 
2.76e-06 4.26058 0.271504 -5.99675e-09 102336 102653 102068 21.9769 -26186.5 21096.4 81987.2 
2.84e-06 3.72579 -0.0819856 -9.63882e-09 102064 102563 102046 7.99024 -73013 4928.86 -53129.6 
2.92e-06 3.72053 0.0955055 6.98986e-09 102309 102724 102232 -1.0965 15846 58812.3 -37073.4 
3e-06 3.70351 -0.629676 8.28741e-09 102042 102421 101931 -72.0491 19812.2 75626 63047.8 
3.08e-06 3.79244 0.021885 -3.25816e-09 101927 102737 102336 -104.312 99227.3 45588.8 -22363.3 
3.16e-06 4.17466 0.476161 -5.16938e-09 102097 102481 102092 -134.355 14262.4 12768.6 13193.6 
3.24e-06 4.31443 -0.104746 -3.71571e-09 102378 102674 102296 75.9239 1070.77 32603.9 -102128 
3.32e-06 4.24704 -0.247398 3.58011e-09 102332 102839 102418 -87.3445 22447.5 79692.6 -26218.8 
3.4e-06 4.22483 0.397049 2.50181e-09 101952 102507 102172 -16.6554 -39016.6 -13730.3 38709.2 
3.48e-06 5.11897 -0.434471 1.67162e-08 102660 102993 102355 -42.0423 79181.9 98421.3 19472.5 
3.56e-06 4.90665 0.190221 -8.50187e-09 102285 102792 102236 -79.0912 67141.5 6832.69 54239.2 
3.64e-06 5.6832 0.301173 6.0255e-09 102353 102651 102075 -89.5486 28333.2 -43389.1 -30727.5 
3.72e-06 4.89768 0.0242211 -6.99803e-10 102326 102852 102213 104.018 15847 -1425.44 7108.27 
3.8e-06 4.74538 -0.025927 1.25033e-08 102174 102705 102103 -73.8222 -353.007 26142.7 19776.8 
3.88e-06 5.45804 -0.0901674 5.02381e-09 102050 102565 102109 -98.6692 -16560.7 -6354.39 24290.8 
3.96e-06 6.30112 0.174954 5.15708e-09 102329 102741 102186 -58.6904 4854.31 886.886 -31752.9 
4.04e-06 5.67186 -0.00749038 3.54219e-09 102548 102906 102417 72.705 -10708.7 2789.64 -45815.3 
4.12e-06 5.41179 -0.365896 -4.85649e-09 102229 102583 102280 -29.6139 16899.4 40047.1 -89240.7 
4.2e-06 7.13814 -0.122617 9.08961e-09 102666 102774 102716 0.257978 -12470.4 64001.4 -23509 
4.28e-06 6.24075 0.168796 -4.27032e-10 102321 102659 102147 -59.0695 27525.8 14847 171320 
4.36e-06 6.3005 0.193096 -1.14183e-08 102090 102586 102158 12.4978 -19055.9 185.14 59698 
4.44e-06 6.56905 0.377984 -5.10811e-09 102076 102518 101847 17.1567 -40716.9 -51044.4 -1714.49 
4.52e-06 5.1321 0.161124 3.30284e-09 102336 102740 102501 -9.56136 55020.1 26275.6 50270 
4.6e-06 5.3674 -0.00975049 -6.73735e-10 102041 102659 102293 -45.6979 -20832.1 -18806.6 42768.1 
4.68e-06 5.14918 -0.111851 1.68142e-09 101900 102396 101663 50.837 -35164.6 144.504 34791.5 
4.76e-06 5.40582 0.343843 2.76972e-09 102431 102652 102440 36.2575 -61542 -46186 81986.1 
4.84e-06 5.40567 0.258349 6.52463e-09 102189 102567 101928 -26.5156 30345.3 19997 60207.9 
4.92e-06 5.6326 0.0595323 4.13799e-09 101965 102464 101997 -34.2251 15822.5 -17341.8 78917.9 
5e-06 5.19121 -0.178946 -9.21448e-09 101845 102405 102081 19.3404 63635.7 -20095.8 85285 
5.08e-06 5.22727 0.0472132 2.56058e-09 102490 102742 102222 14.2008 -6409.32 10541.9 6974.27 
5.16e-06 5.90463 0.0411729 5.27064e-09 102056 102763 102351 -17.2336 -106546 -31965.6 -48230.2 
5.24e-06 6.76022 -0.129922 -2.54455e-09 102299 102910 102387 128.334 -66999.5 52208.4 -21552.3 
5.32e-06 6.44174 -0.414828 -7.27552e-09 102534 102724 102710 8.48927 95963.7 -3757.48 33475.8 
5.4e-06 7.2516 -0.235633 -3.70848e-09 102403 102703 102315 43.4664 35403.9 1582.04 -50486 
5.48e-06 7.06094 0.0287087 -4.74197e-09 102096 102693 102056 -65.2993 36206.9 10263.7 34669.2 
5.56e-06 8.09337 -0.0319601 6.93951e-09 101988 102216 101851 -172.804 -98486 18245.7 -58779.8 
5.64e-06 8.10608 0.107199 2.14104e-09 101836 102501 101845 -39.3855 -41475.3 18058.6 14115.1 
5.72e-06 7.78408 -0.0295922 8.89178e-09 102147 102604 102284 -147.264 18397.5 43203.7 162672 
5.8e-06 7.54535 -0.353376 4.78997e-09 102441 102677 102291 -13.1343 41926.6 20343.7 4889.21 
5.88e-06 7.84679 0.286497 3.49132e-09 101904 102530 101905 76.232 -29210.4 31239.7 7989.48 
5.96e-06 7.46185 0.170262 -6.36942e-09 101896 102673 101701 -22.3941 4962.8 -47602.5 43892.1 
6.04e-06 7.56633 0.0629764 7.07203e-09 102347 102711 102484 -38.5627 5062.97 6442.02 63329.7 
6.12e-06 8.0841 0.173889 -1.24396e-09 102379 102676 101967 14.5322 -11195 -15033.1 5235.75 
6.2e-06 8.0783 0.26773 -4.23393e-09 102515 102671 102540 -53.0028 -99334.3 -31305.3 64791.6 
6.28e-06 7.49277 0.0902409 -3.99957e-09 102079 102522 101969 -57.4795 -10721.6 -26948.7 -94762.9 
6.36e-06 8.38686 -0.367731 1.88947e-09 101715 102344 101854 -18.7976 -87324.3 -7564.25 -42688.7 
6.44e-06 8.62401 0.220559 2.68415e-10 102220 102405 102388 22.7242 -78223.8 -26786.3 -2307.19 
6.52e-06 8.39842 0.197386 3.07959e-09 102569 102686 102372 -178.603 -30844.6 -39214.3 -9840.97 
6.6e-06 8.26943 0.119072 4.53817e-09 102289 102716 102265 33.9741 67518.5 9887.13 -2868.89 
6.68e-06 9.84076 0.271976 4.77236e-09 102249 102716 102637 -100.677 14213.9 -66934 -15071.6 
6.76e-06 10.7403 -0.0158014 3.33078e-09 102432 102556 102036 92.0576 -93105.2 11533.7 84255.1 
6.84e-06 10.0248 -0.183648 -2.52728e-10 102723 102830 102462 -45.6837 59064.4 21626.3 37859.3 
6.92e-06 10.3302 -0.115318 -2.61692e-10 102238 102456 102175 -108.347 -35516.7 -6447.96 67094.7 
7e-06 10.5987 0.19704 2.71645e-09 102669 102717 102427 -10.0416 27603.2 65259.7 7117.85 
7.08e-06 10.0191 0.265504 3.33291e-09 102262 102447 102266 99.7378 5482.49 18005.2 43531.3 
7.16e-06 9.50041 -0.0598543 -9.41488e-09 102426 102605 102410 -1.01331 21502.1 90811.2 3199.24 
7.24e-06 9.56511 -0.113521 2.23194e-09 102174 102847 102616 -108.851 17275.2 4684.06 -56547.9 
7.32e-06 10.0909 -0.289277 5.87662e-09 101875 102516 102141 14.5626 147100 31831.7 10621.5 
7.4e-06 10.5969 0.207982 3.75001e-09 102063 102709 102044 -65.0336 -12077.4 27408.9 84591.2 
7.48e-06 10.6534 -0.115389 1.17743e-08 102270 102774 102463 -166.07 5029.95 1330.16 132875 
7.56e-06 11.6152 -0.0920239 3.08909e-09 102667 102793 102747 -3.60842 13276.1 20980.6 -49435.4 
7.64e-06 12.4956 0.198037 3.03811e-10 102068 102535 101853 -202.164 -14237.1 22554.1 66535.3 
7.72e-06 12.5399 0.0435667 6.02551e-09 102168 102702 102335 -123.582 -76626.1 24363.5 48877.3 
7.8e-06 12.1808 0.294528 -3.48985e-09 102162 102535 102223 -37.2197 -23336.1 24428.7 29436 
7.88e-06 12.8617 0.0629478 4.19828e-09 102245 102698 102137 -53.6555 -20959.6 42259.4 -29366.8 
7.96e-06 13.4736 0.395254 1.17005e-08 102382 102726 102016 -86.9558 -30735.9 -72508.7 -23174.4 
8.04e-06 14.1108 -0.0931344 2.35271e-10 102097 102393 101497 -20.2452 69647 33791.5 32770.4 
8.12e-06 14.6904 0.225606 5.68963e-09 102124 102653 102014 5.9585 14918.2 -10791.3 -35062.2 
8.2e-06 13.8954 0.0347132 -1.47394e-09 102496 102762 102221 24.3547 1500.5 27194 -821.505 
8.28e-06 14.4952 0.0164331 1.2363e-08 102283 102733 102100 -191.93 -3696.28 47283.4 -46231 
8.36e-06 14.362 0.460511 9.24143e-10 102335 102582 102191 -33.4173 100138 9812.37 -39904.3 
8.44e-06 16.4108 0.0849219 -9.63291e-09 102388 102671 101939 -104.283 -108215 -3368.08 28761.9 
8.52e-06 15.9553 -0.057074 2.13757e-10 101980 102534 101937 -89.3789 -80842.1 13030.8 62595.2 
8.6e-06 15.5081 -0.109034 1.08153e-08 102088 102541 102260 -116.703 -54701.7 90234.6 39111.2 
8.68e-06 15.7924 0.161376 -1.96949e-09 102229 102559 102122 42.1668 31846.2 5065.42 11459 
8.76e-06 16.8342 -0.264012 6.23256e-09 102128 102696 102086 -63.3383 -18727 8200.24 -45460.8 
8.84e-06 17.5504 0.317678 -1.30275e-09 102161 102522 101905 -78.4224 -84639.7 -22992 4321.89 
8.92e-06 16.621 -0.128896 -2.02017e-09 102446 102604 101989 -71.4297 -29506.5 41033.8 62040.8 
9e-06 17.7724 0.119386 4.70748e-09 102192 102734 102090 -38.8031 -76498.1 -15807.5 -22543 
9.08e-06 17.3741 0.259408 7.35494e-10 102068 102673 102110 -123.001 68309.1 24993 62217.6 
9.16e-06 18.0342 0.121806 1.38214e-10 101560 102430 101993 -175.701 1492.16 12554.8 46149.5 
9.24e-06 18.0665 -0.134923 -9.51876e-09 101905 102749 102094 39.3754 12512.4 54646.9 -46215 
9.32e-06 18.191 0.273742 2.68066e-10 101855 102604 102238 -22.0249 5894.84 29508.2 42406.5 
9.4e-06 19.2906 -0.368228 -8.63305e-10 102223 102606 102219 -56.73 -87337 40613.3 4574.55 
9.48e-06 18.3883 0.264301 -6.88713e-09 101864 102750 102106 -11.4968 23904.6 -21354.3 -5508.14 
9.56e-06 18.3206 0.334125 1.18551e-09 102395 102696 102506 53.8431 26872.5 24736.2 25553.9 
9.64e-06 18.4187 -0.0525555 5.13956e-10 102045 102700 102397 -74.2394 -71087.9 45181.5 57646.1 
9.72e-06 19.1563 0.259162 -1.7429e-09 102220 102722 101915 -83.8886 -65967.7 -13536.9 77145.2 
9.8e-06 20.0587 0.627331 3.83335e-09 102094 102546 101993 -35.8665 -54784.3 -15808.5 -5681.33 
9.88e-06 19.5928 0.269792 -4.30352e-10 101686 102546 101822 -69.8416 -29435.7 17974.3 -34965.6 
9.96e-06 19.4519 0.118496 -6.39517e-10 101906 102806 102289 -30.6671 -32707 -24461.8 -43804.4 
