ITEM: TIMESTEP
1000000
ITEM: NUMBER OF CELLS
125
ITEM: BOX BOUNDS pp ss pp
0 0.0001
0 1e-05
0 0.0001
ITEM: CELLS yc f_vel[1] f_vel[2] f_vel[3] f_mom[1] f_mom[2] f_mom[3] f_mom[4] f_q[1] f_q[2] f_q[3] 
4e-08 0.753958 0.0312569 9.02952e-09 102001 102750 102189 -149.014 81327.9 191621 -5302.18 
1.2e-07 1.78893 -0.021315 -2.1027e-09 102819 102609 102619 -23.2106 47774.7 68197.2 17582 
2e-07 0.470849 0.0167208 -2.67845e-09 102560 102612 102554 -102.604 54469.5 42543.1 -32026.4 
2.8e-07 0.504534 -0.0308314 1.13933e-08 102403 102492 102313 25.4 45702.5 3226.79 63721.1 
3.6e-07 0.667764 0.014107 4.08682e-09 102828 102483 102908 -104.282 -25829.8 -15805.7 67826.2 
4.4e-07 1.43463 -0.0115703 -1.58542e-09 102924 102515 103005 -127.688 9446.28 -12221.9 20551.2 
5.2e-07 1.82463 -0.0180376 5.73495e-10 102552 102541 102548 -98.489 -17349.3 -14374.3 -131956 
6e-07 2.5153 0.0349282 3.33132e-09 102487 102425 102506 -38.4291 -3763.79 -25109.8 -28949.1 
6.8e-07 3.70478 -0.040919 -2.39832e-09 102604 102641 103047 -37.7868 -79088.3 70731.2 26390.7 
7.6e-07 3.05823 0.00201792 2.26959e-09 102837 102612 103023 -22.1672 -36405.1 29064 -8716.17 
8.4e-07 3.01538 -0.00715569 2.46935e-09 103287 102488 102782 -69.7196 -38198.4 -12065.6 -56802.6 
9.2e-07 3.13211 0.0705603 -5.98524e-09 102689 102545 102749 -34.0916 -24670.8 -75656.3 56154.9 
1e-06 3.78821 -0.042776 -1.27536e-09 102643 102485 102350 -90.9796 -45224.2 -20602.3 10935.9 
1.08e-06 4.57147 0.0602918 1.15606e-09 102430 102487 102450 -32.8023 47513.4 -13276.3 -55469.9 
1.16e-06 4.24835 -0.035131 -1.85508e-09 102304 102489 102401 -77.4394 -16720.8 53893.1 -67765.8 
1.24e-06 5.12727 -0.033434 6.46019e-10 102856 102584 103010 -60.7805 -27173.4 22624.1 -18534.4 
1.32e-06 4.56472 0.0683769 8.48097e-09 102722 102443 102755 40.9072 2623.99 -18256.8 110882 
1.4e-06 3.86385 0.0111662 -9.64867e-09 102612 102455 102364 -14.5663 6856.16 -12948.4 106809 
1.48e-06 4.20352 0.0102311 1.33001e-08 102805 102499 102884 -125.204 -36435.4 30721.2 -41178.9 
1.56e-06 5.7584 -0.0729397 1.0733e-09 102466 102733 102592 -103.234 -110161 -17305.4 -40648.8 
1.64e-06 5.98676 -0.0251435 1.13371e-10 102725 102479 102396 -149.996 -16822.5 -3255.65 -50876.6 
1.72e-06 5.75675 0.00917021 2.55525e-09 102427 102669 102532 -10.3968 -5905.72 8304.63 42430.5 
1.8e-06 5.12217 -0.0710656 -8.5695e-10 102870 102555 102829 -48.8982 38425.3 46163.1 48008.6 
1.88e-06 5.59922 -0.0435546 1.37971e-08 102407 102501 102336 -27.613 -12477.4 26050.4 -35073.4 
1.96e-06 5.60715 -0.0368096 3.63898e-09 102349 102497 102517 3.77559 -44229.7 25261.3 97978.8 
2.04e-06 6.64789 -0.0540335 4.11081e-09 102517 102420 102619 -67.2265 -71571.6 5468.11 -84360.3 
2.12e-06 6.64844 -0.0916896 2.87974e-10 102277 102483 102435 -101.089 -57758.6 -17898.1 -37332.4 
2.2e-06 6.07627 0.0062389 -6.14033e-09 102502 102492 102786 -88.4641 12498.1 13979.5 -62011.3 
2.28e-06 6.39109 -0.127916 -7.48935e-09 102714 102472 102378 6.29579 -31873.2 17380.7 -876.791 
2.36e-06 5.12559 -0.0512006 -2.88768e-10 102580 102542 102727 -50.8811 83123.2 6857.3 51337 
2.44e-06 5.96913 -0.0430808 5.95761e-09 102954 102565 102603 -140.625 52209.2 -15922 -9886.83 
2.52e-06 5.7838 -0.0632018 1.35585e-08 103022 102590 102561 -56.7507 54853.4 -21974.7 99389.5 
2.6e-06 5.30924 -0.114199 -3.66314e-09 102390 102498 102528 -101.125 12395.6 10416.8 -2634.8 
2.68e-06 5.17241 -0.151414 -2.56977e-09 102764 102642 102661 -143.355 20437.4 22247.9 -51659.3 
2.76e-06 5.11801 -0.0318565 -4.4298e-09 102236 102462 102352 12.5425 7138.02 -24280.4 15016.5 
2.84e-06 5.14153 0.0193339 -8.53827e-09 102870 102522 102728 -94.3616 7216.04 8764.98 -59462.5 
2.92e-06 5.20825 -0.0904633 -6.01276e-09 102843 102549 102841 -52.7117 18946.5 57045.4 89736.3 
3e-06 4.96143 -0.0515032 -1.22293e-09 102550 102621 102614 -103.544 60263.1 3016.34 71773.1 
3.08e-06 6.00307 -0.00740151 5.31949e-09 102490 102525 102782 -35.6115 58953 44605.2 10543.7 
3.16e-06 7.08892 0.00838574 7.63772e-09 102750 102458 102920 -51.6885 9356.47 -5486.67 -52965.6 
3.24e-06 6.54537 0.0148946 1.1511e-09 102518 102539 102762 -58.6732 -12472.5 -23019 39512.9 
3.32e-06 5.95317 -0.0460888 2.46121e-09 102396 102523 102295 -42.0698 115123 -12320.9 -28053.2 
3.4e-06 6.10778 -0.0100798 1.71226e-08 102103 102430 102337 -126.692 109332 -32644.6 -68886.9 
3.48e-06 6.96424 -0.069207 9.27086e-09 103114 102629 102631 -85.1482 79314.9 27261.8 -11546.5 
3.56e-06 7.49906 -0.0221616 -1.63731e-10 102348 102491 102735 -65.4715 -3583.48 9890.51 33542.5 
3.64e-06 7.58918 0.0724096 7.64744e-09 102662 102424 102163 -105.514 12438.1 44852.3 44593.4 
3.72e-06 8.57226 -0.0858889 -3.71155e-09 102515 102315 102274 -49.4583 -45968.1 -14096.3 23220 
3.8e-06 7.86124 -0.0523409 -8.23444e-09 103000 102631 103191 -74.2977 65180.8 -1335.87 -14695.4 
3.88e-06 7.35416 0.00794484 -4.37056e-09 103062 102453 102786 -65.4804 -66013.9 -1260.4 16261.6 
3.96e-06 6.68619 0.0140101 9.50032e-09 102692 102585 102966 -71.0824 -2246.72 16648.1 141328 
4.04e-06 7.12264 -0.0688026 4.81481e-09 102481 102425 103063 28.8639 -40156.3 28723.3 31993.3 
4.12e-06 7.05612 -0.0686682 -4.47087e-09 102541 102615 102567 -11.4776 -102582 48513.3 71526.8 
4.2e-06 7.09333 -0.00166946 6.4718e-09 102861 102568 102688 -160.186 90573.4 16257.3 54885.2 
4.28e-06 7.66016 -0.0795702 -4.92584e-09 102735 102578 102677 -115.577 -72492.6 13620.1 -67598.7 
4.36e-06 7.9775 0.00522226 -5.02807e-09 102893 102654 102917 -83.8206 -95163.5 5836.32 20579.9 
4.44e-06 6.80526 -0.0218357 -7.70853e-09 102322 102463 102274 -8.2048 53990.7 20644.4 -8042.22 
4.52e-06 6.7734 -0.0529573 -3.75951e-09 102950 102677 103231 -129.081 -40913.4 -16628.1 -19741.5 
4.6e-06 6.77967 -0.0282334 1.21795e-09 102543 102570 102552 -167.522 629.565 -20712.2 -15316.1 
4.68e-06 7.37879 -0.0480668 4.31536e-09 102480 102433 102384 -85.3306 -61258.4 13831.8 50449.9 
4.76e-06 7.09672 -0.0524864 -5.20072e-09 102682 102418 102671 -4.80707 65729.9 9488.12 -81506.2 
4.84e-06 6.29532 -0.0236809 -4.39233e-09 102569 102538 102205 -109.053 29600.6 41446.6 -55782 
4.92e-06 7.82809 0.0406932 -6.42794e-09 102639 102486 102274 -95.3796 -88999.3 42451.5 21237.4 
5e-06 7.26045 -0.00490347 -8.4729e-10 102501 102521 102445 -30.9422 121214 19239.7 105696 
5.08e-06 8.14013 -0.0844957 1.03773e-08 103083 102536 102398 -92.4498 -21680.3 -28122.7 -41648.1 
5.16e-06 8.32614 0.00568132 3.99791e-09 102741 102553 102711 -8.50666 -53223.6 -46218.5 23059.6 
5.24e-06 8.41374 -0.0285333 -6.9479e-09 102951 102604 102840 -73.826 38408.7 61553 -59682.9 
5.32e-06 8.60971 0.00526982 -3.95339e-09 102152 102445 102516 -45.1752 -92149.7 -25814.6 134565 
5.4e-06 9.72321 -0.00683096 2.49267e-09 102759 102633 103011 -12.5939 -112668 -24995.8 50393.4 
5.48e-06 9.78218 -0.10055 3.8403e-09 102811 102530 102679 -82.39 17900.2 -9430.38 17909.2 
5.56e-06 9.61661 0.00405524 1.11515e-09 102705 102494 102619 -115.035 5585.64 -32327.3 -33227.3 
5.64e-06 10.2062 -0.0262309 6.2944e-09 102658 102535 102909 31.6597 4262.9 24892.3 -49091.4 
5.72e-06 9.95481 -0.013001 6.66663e-09 102752 102594 102936 65.5113 -49809.8 7405.53 -51335.4 
5.8e-06 9.02056 -0.0783166 9.70841e-10 102670 102584 102850 -93.8684 -5711.26 -6531.93 -80163.2 
5.88e-06 9.84398 -0.0060435 4.90234e-09 102553 102474 102559 -162.171 -26036.2 1993.85 -161497 
5.96e-06 9.12024 -0.0162327 -3.03627e-09 102548 102560 102870 -113.151 -56228.1 15246.2 -48393.7 
6.04e-06 9.03001 -0.00977555 4.9864e-10 102493 102593 102782 22.1327 43392.2 22340.4 -16269.2 
6.12e-06 10.3076 -0.0628909 3.43787e-09 102785 102567 102807 -71.6652 -44695.8 -20809.2 18294 
6.2e-06 11.4919 -0.0361868 8.89675e-09 102761 102531 102616 -102.62 -44944.9 44299.3 37448.6 
6.28e-06 11.3651 -0.0116641 -1.3231e-09 102706 102463 102674 43.4298 -60126.9 -27785 -13529.3 
6.36e-06 10.5922 -0.107571 -8.56478e-09 102668 102598 102798 -3.37431 14253.7 -3975.33 -13106.7 
6.44e-06 10.245 0.0521514 3.70951e-09 102855 102496 102379 -79.9205 68534.7 39496.8 90273.3 
6.52e-06 11.8097 -0.0715002 -3.19783e-09 102452 102586 102380 14.3777 -8378.19 591.019 81422 
6.6e-06 11.8122 -0.0644934 5.63629e-09 102038 102332 102434 -64.697 -9940.09 28810.2 39869.5 
6.68e-06 11.4488 -0.0662287 -9.49973e-09 102560 102534 102503 -124.885 47723.7 61557.8 -49423.2 
6.76e-06 12.825 -0.128304 6.09964e-09 102734 102610 102637 31.3145 52683.1 15220.8 -43570.4 
6.84e-06 12.987 -0.114586 -1.83355e-09 103158 102581 102826 -29.9665 70361.6 -9621.53 100395 
6.92e-06 13.0876 -0.157124 1.74378e-09 102914 102609 103238 13.8121 89756.2 12757 -35615.6 
7e-06 12.3439 -0.0955174 -1.88922e-09 102308 102556 102775 -104.951 89.9631 1017.02 32178.9 
7.08e-06 12.2915 -0.0290502 3.43008e-09 102375 102386 102523 -69.4904 -5469.85 37939.3 -56196.9 
7.16e-06 14.0378 0.0414304 3.2448e-09 103004 102500 102460 -107.697 16081.3 -5062.86 14627.7 
7.24e-06 13.3779 0.0278195 1.52921e-09 102677 102642 102575 4.78274 76937.3 13427.7 -50494.4 
7.32e-06 14.467 -0.0440165 8.22723e-09 102329 102480 102536 -29.3324 90286.7 -9304.59 76363 
7.4e-06 14.2486 0.040672 -7.7163e-09 102271 102418 102320 -252.66 86964.8 63294.3 30055.5 
7.48e-06 14.4696 -0.036849 3.615e-09 102111 102510 102160 -17.6289 624.66 24289.4 9741.67 
7.56e-06 13.322 0.00463651 -2.72749e-09 102658 102411 102416 9.94155 16593.4 17292.8 69646.7 
7.64e-06 13.0332 -0.00401043 3.99661e-09 102942 102567 103163 24.2369 60222.5 8848.64 -95281.4 
7.72e-06 13.9339 -0.00611381 6.87517e-09 102608 102614 102641 -122.067 9089.45 6376.42 21573.1 
7.8e-06 13.6574 0.0423393 4.31142e-09 102385 102527 102440 -119.741 9671.76 50696.9 -97460.1 
7.88e-06 14.0788 -0.0584582 -4.55589e-09 102502 102498 102737 -111.64 31282.1 -25492.4 -122821 
7.96e-06 14.9521 0.00648373 -2.26456e-10 102815 102602 102550 -99.273 -20.3068 7502.18 -35738.5 
8.04e-06 14.9936 -0.0164223 6.3074e-10 102457 102465 102429 -61.5455 85055.6 -17048.5 -28249.2 
8.12e-06 14.169 -0.0108312 5.16919e-10 102822 102565 102761 38.1348 -487.043 -12444.2 -42171.4 
8.2e-06 13.4032 0.0203118 -1.17056e-10 102424 102489 102845 76.4429 141911 10365 104622 
8.28e-06 14.1706 -0.0265054 -6.81337e-09 102637 102458 102282 -42.2984 2312.94 16673.3 -28740.2 
8.36e-06 14.0607 0.0450924 -3.01473e-09 102612 102608 102683 -1.40562 36436.8 -17299.4 38678.5 
8.44e-06 15.0159 -0.00704511 7.44174e-10 102739 102689 102516 -15.5471 -66128.9 3405.11 -41749.7 
8.52e-06 14.1478 0.0329943 -6.59918e-09 102718 102655 102974 -119.418 15628.9 1306.86 49949 
8.6e-06 15.6412 0.00682817 -2.50464e-09 102493 102515 102525 -77.0054 -168306 -1931.95 67659.4 
8.68e-06 14.6685 -0.0414272 1.63951e-09 102496 102434 102439 88.8654 22670.2 -849.172 22979.2 
8.76e-06 14.245 -0.0428213 -8.90457e-10 102712 102490 102616 -15.7148 69735 35356 15686.1 
8.84e-06 14.5536 0.077525 8.25158e-09 102403 102548 102546 -102.878 -32684.4 -23048.7 -2982.09 
8.92e-06 14.9118 -0.0270972 -2.77925e-09 102616 102528 102670 -109.092 -16559.3 37916.6 -5052.53 
9e-06 13.8597 0.0395734 1.26185e-08 102657 102520 102494 14.2464 35946.2 -4934.06 -8789.41 
9.08e-06 14.4824 0.00153905 2.23151e-09 102522 102389 102303 -21.3365 9593.84 11428.3 -58134.1 
9.16e-06 14.9153 0.0700807 7.83603e-09 102328 102503 102609 82.1558 -67818.5 -2892.54 -21321.6 
9.24e-06 14.841 -0.0231192 5.29946e-09 102964 102637 102795 -55.8659 72133.8 23114.4 -13147.1 
9.32e-06 14.9365 0.0292578 -1.49206e-09 102540 102455 102804 42.9855 -41248.8 -110.646 97321.8 
9.4e-06 15.9776 0.0602453 -3.79283e-12 103177 102537 102907 -126.788 4308.86 -39806.2 -9266.77 
9.48e-06 16.0521 0.0269403 -9.7296e-09 102671 102491 102536 29.4336 30425.2 -10356.3 -2021.01 
9.56e-06 15.8675 0.0362427 2.43784e-09 102663 102465 102493 -76.6681 -11637.4 -30696.4 -2541.16 
9.64e-06 16.5442 0.0096565 5.58534e-09 102606 102512 102691 -165.378 -77874.6 -28206.5 -27649.8 
9.72e-06 17.0007 0.00525097 -5.89249e-09 102709 102510 102942 -54.6781 -2778.07 -3081.5 20490.6 
9.8e-06 17.6173 -0.047169 1.13216e-08 102634 102540 102661 -170.319 -9957.66 -22567.8 59658 
9.88e-06 17.5304 0.00699969 1.13855e-08 102300 102608 102798 5.61953 20942.7 -96086.6 51813 
9.96e-06 19.1018 -0.0656991 1.0827e-09 102039 102662 102718 -63.8109 -114692 -171455 -85175.8 
