ITEM: TIMESTEP
1000000
ITEM: NUMBER OF CELLS
125
ITEM: BOX BOUNDS pp ss pp
0 0.0001
0 1e-05
0 0.0001
ITEM: CELLS yc f_vel[1] f_vel[2] f_vel[3] f_mom[1] f_mom[2] f_mom[3] f_mom[4] f_q[1] f_q[2] f_q[3] 
4e-08 0.81232 -14.8318 7.03029e-10 99543.5 98359.8 99680.7 -16.5312 -2333.34 167012 22768.1 
1.2e-07 1.05983 -14.25 1.4522e-09 97722.2 97439.9 97692.5 -40.4358 27248.2 18154.8 37640.1 
2e-07 1.03811 -13.7843 -1.87519e-09 97378.9 97496 97487 94.0164 -4628.71 28272.3 -15314.4 
2.8e-07 1.32815 -13.9487 3.47874e-09 97598.4 97573.4 97699.8 -57.6743 -10381.9 -25680.4 18994.9 
3.6e-07 1.69457 -14.0942 -6.57996e-09 97053.7 97095.7 97059 -41.3587 -2247.11 -18558.5 13418.1 
4.4e-07 1.82176 -13.9939 4.19907e-10 97571.9 97456.7 97553.5 3.30844 12886.1 -21262.7 -15456.7 
5.2e-07 1.50712 -14.0221 -1.63341e-09 97444.4 97276.1 97300.5 6.06935 -42107.9 16405.3 -7374.58 
6e-07 1.49813 -14.2219 2.75692e-09 97388.5 97365.4 97296 -138.233 22539.6 -6010.25 8112.16 
6.8e-07 1.95487 -13.4405 4.60002e-09 97158.9 97101.2 97122.7 67.5182 -10293.1 -60460.1 -12382.8 
7.6e-07 1.94331 -14.0262 -3.37823e-09 97362.4 97221.9 97022 -20.1914 -7659.17 -36581.2 42029.6 
8.4e-07 1.38436 -14.0913 8.34101e-10 97313.5 97281.7 97251 94.2793 17723.1 12988.3 44765.9 
9.2e-07 2.09579 -14.0797 2.98895e-09 97289.1 97300.3 97257.8 -74.7028 -52012.2 -18534.5 2734.57 
1e-06 2.08865 -13.8836 -3.32001e-09 97767.6 97620.4 97737.6 44.7604 -14192.5 -8359.73 -22813.2 
1.08e-06 2.13945 -14.1836 -1.78997e-10 97192.5 97341.1 97228.1 -82.1705 -51303.7 -7129.07 -7058.34 
1.16e-06 2.32757 -13.9018 -3.53311e-09 97371.7 97328 97322.6 -51.954 11893.8 -18838 -16167.4 
1.24e-06 1.92977 -14.0761 -3.08934e-09 97330.1 97256.3 97364.4 -25.9768 -28637.3 -17011.4 23240.1 
1.32e-06 1.70067 -13.6849 2.47673e-10 97367.7 97252.2 97212.3 22.7914 16274.3 -58775.8 18076.1 
1.4e-06 1.93283 -14.1641 8.52401e-09 97224.7 97187 97294 -9.65998 -4936.51 -7069.77 -18093.3 
1.48e-06 1.7843 -14.5677 1.61474e-09 97464.7 97314.2 97491.9 -11.007 -5897.45 14086.9 -3516.15 
1.56e-06 1.85787 -14.0121 1.48855e-09 96798.9 96998.6 96955.9 -2.96103 -5358.41 -36597 -11290.5 
1.64e-06 1.72673 -14.2129 3.77823e-09 97204.4 97341.1 97023 40.5442 7445.18 -35220.4 22884.2 
1.72e-06 1.58834 -14.6429 -1.91682e-09 97489.4 97380.7 97627.6 -42.9748 13281.4 20636.5 32858.8 
1.8e-06 1.694 -14.2068 -2.98341e-09 97016.2 97079.6 97223.6 -55.1882 13611.8 26207.3 -35474.7 
1.88e-06 2.28511 -14.0854 2.99457e-09 97167.9 97068.5 97031.1 -57.1892 15966.5 5512.96 -22320.5 
1.96e-06 2.17618 -14.6875 5.64434e-09 97079.6 97041.9 96971.9 -51.051 31596.6 61504.2 7667.3 
2.04e-06 2.66236 -14.5677 1.17162e-09 97502.9 97415.4 97332.2 54.6691 -578.675 -6612.29 8551.75 
2.12e-06 2.94523 -13.935 5.50744e-09 97248.5 97272.3 97202.6 37.04 -44805.9 -2934.79 6144.69 
2.2e-06 2.68466 -14.1483 -2.24188e-09 97586.3 97291.6 97556.6 -42.9966 22519 -10852.8 -47885.2 
2.28e-06 3.07574 -14.2808 6.61521e-09 97125.9 97244.1 97128.2 38.9884 19021 32260.1 12729.6 
2.36e-06 3.98778 -14.1891 -2.45957e-10 97475.2 97338.7 97539.6 -48.6471 -15926.1 24173.6 15812 
2.44e-06 4.04443 -14.1586 -6.07491e-10 97377.6 97319.7 97305.1 -28.2582 -5690.69 -14616.2 -15186.4 
2.52e-06 3.58543 -14.2399 -8.32278e-10 97052.6 97202.6 97041.3 -23.4256 -32003.3 11357.4 -21274.8 
2.6e-06 4.25404 -14.159 -4.22565e-09 97105.3 97323.2 97086.3 14.9061 -749.234 -19584.4 24941.2 
2.68e-06 3.97885 -13.9239 4.0445e-09 97467.1 97449.1 97465.4 -65.5617 1633.2 350.414 1233.8 
2.76e-06 5.09628 -14.3367 4.00565e-10 97289.1 97355.2 97251 -92.9828 -13591.8 -12127 27495.1 
2.84e-06 5.21953 -14.4715 4.26677e-09 96997.4 97024.5 96948.4 -48.46 -41781.1 30211.3 3439.38 
2.92e-06 5.50764 -13.8704 3.75256e-09 97150.7 97129.2 97019.1 -76.3167 1036.84 -17258.9 11758.6 
3e-06 6.32889 -14.3077 3.57712e-09 97639 97521.6 97532.9 -155.444 -7604.68 -12563.7 -23146.3 
3.08e-06 7.1354 -13.9979 5.92315e-09 96973 97202.2 96948.1 -63.7215 -39777.8 -11388 -7280.31 
3.16e-06 6.81783 -13.9542 2.5566e-09 96912.4 97029.7 96778.6 29.5696 -11122.9 -9576.81 26462.6 
3.24e-06 6.57154 -14.0495 3.1489e-09 97246.1 97363.1 97494.4 -32.9632 -16406.7 6330.25 -21450.5 
3.32e-06 5.90425 -14.3336 1.86519e-09 97257.6 97320.7 97399 -96.7959 48424.5 31914.3 -19848.6 
3.4e-06 5.98762 -14.226 1.91608e-09 97643.5 97522.3 97667.4 38.1157 31093.2 -18332.4 -24872.6 
3.48e-06 6.78291 -14.2485 7.03149e-10 97432 97499.6 97370.7 -46.5708 -4838.79 34547.2 -25586.8 
3.56e-06 7.36427 -14.2578 -8.10894e-10 97446.2 97393.7 97306.2 -73.0561 17152 31473.4 70289.4 
3.64e-06 7.22797 -14.0898 -1.70176e-09 97538.2 97452.9 97342.7 -74.3631 -21966.7 -22011.6 -23069.5 
3.72e-06 7.63026 -14.2357 3.72896e-09 97326 97252.4 97327.3 10.7824 52936.6 18394.8 -29668.4 
3.8e-06 7.64376 -14.4488 2.98798e-09 97385 97326.6 97582.2 3.69893 -24298.1 -11161.5 -13462 
3.88e-06 8.40281 -14.3242 2.75153e-10 97534.6 97599.4 97597.3 -86.6347 -24494.8 -14285.5 55909.7 
3.96e-06 8.61721 -14.3139 1.6368e-09 97240.4 97274.2 97246.2 -52.7708 -30475.4 -8955.26 -33881.1 
4.04e-06 8.99015 -14.4963 3.60944e-10 97020.4 97343.4 97156.6 4.40889 18743.5 21320.3 -24604 
4.12e-06 7.91642 -14.0142 4.32195e-09 97569.3 97474.8 97499.9 13.5166 49304 -40043.5 -22245.7 
4.2e-06 8.71395 -13.9475 2.99084e-09 97076.6 97238.1 96952.5 -45.3235 29549.7 -29366.5 25385.2 
4.28e-06 8.33216 -14.4647 -3.36415e-09 97641.3 97544.5 97560 12.0445 17864.2 -17002 -58117.1 
4.36e-06 9.1556 -14.0784 -3.15486e-09 97406.9 97290.4 97279.9 -88.0224 -9950.29 3999.79 14802.9 
4.44e-06 9.05258 -14.0229 -3.11106e-10 97181.7 97201 97070.1 -18.2422 33575.1 -32662.1 38756.7 
4.52e-06 9.11067 -14.3388 2.79471e-09 97290.8 97318.8 97436.1 1.6273 -14401 -32194.7 35069.4 
4.6e-06 9.78377 -14.2167 9.70741e-09 97140.7 97142.8 97019.6 -87.633 -2458.63 -32068.1 -457.191 
4.68e-06 10.1423 -14.0092 -9.59466e-10 97282 97244.5 97043.3 -53.3756 -6195.81 -31834.3 -41457.7 
4.76e-06 10.2054 -14.2493 2.74649e-09 97253.4 97209.1 97257.7 -50.378 31763.7 -4242.49 -20761.3 
4.84e-06 10.8733 -13.9537 -2.4249e-09 96984.8 97121.1 97017.2 -86.8287 17848.5 -4001.67 27667.1 
4.92e-06 11.5783 -14.2094 5.2599e-09 97448.6 97299.3 97726.6 -104.845 -2102.27 11614.8 -2130.25 
5e-06 10.9357 -14.2062 1.24498e-10 97618.6 97613.9 97617.8 -164.038 27090.1 -28049.6 53436.4 
5.08e-06 11.9899 -14.5575 -2.27284e-09 97305.9 97253.4 97233 -107.194 -43753.4 15375.6 -11738.4 
5.16e-06 11.4497 -14.2435 1.21804e-09 97590.6 97466.5 97493.7 -19.6425 -10514.6 -15189.1 52153.9 
5.24e-06 12.2142 -14.026 2.26474e-09 97590 97362.7 97482.5 -81.8938 19648.1 -7014.35 -958.182 
5.32e-06 12.8585 -13.9451 2.89045e-10 97501.9 97402.8 97380.8 -61.5129 43754.1 -23711.6 14778.8 
5.4e-06 12.5474 -14.2139 4.6209e-09 97451.3 97405.5 97580.5 -87.0364 -23779.1 28865.1 -8838.23 
5.48e-06 12.7505 -14.0989 -1.67656e-09 97138.9 97248.6 97042.7 -72.2648 1188.38 -6185.13 -2214.47 
5.56e-06 12.7675 -13.6273 -9.79046e-10 97182.9 97209.2 97125.1 53.3959 -814.397 -15229.3 11681.4 
5.64e-06 12.1853 -13.9942 -3.07606e-09 96974.9 97112.7 96925.4 -70.3911 41938.3 -26146.3 -28304 
5.72e-06 13.1569 -14.1118 2.69371e-09 97446.1 97466.8 97248.8 -83.5782 1690.24 -9459.48 -50993.3 
5.8e-06 13.1253 -14.2058 -1.07815e-09 97124.8 97377.6 97384.1 20.5009 -24109.9 18070.8 -58816.2 
5.88e-06 13.0241 -14.4493 -8.8722e-10 97308 97296.4 97290.5 -41.1158 -9427.84 3520.19 -30706.2 
5.96e-06 13.1773 -14.2373 2.1476e-09 97664.3 97624.6 97592 -61.8 -37238.3 14570.2 -24123.9 
6.04e-06 12.8868 -14.0596 5.978e-10 97030.9 97172.3 97134.5 53.3246 -28341.6 -23697.2 -68402.7 
6.12e-06 13.5062 -14.1987 -1.13502e-09 97569.7 97430.2 97553.3 -48.5283 -39844.9 25067 42535.3 
6.2e-06 12.8515 -13.9685 2.9641e-09 97216.2 97454.6 97256.9 -108.54 29147 -38239.3 43229.5 
6.28e-06 13.6928 -14.2621 1.78374e-09 97321.7 97369.1 97361.6 24.3169 -6022.41 40701.6 -5362.5 
6.36e-06 13.2097 -14.103 1.34506e-09 97384.1 97441 97228.5 -79.3333 39352.5 -3232.81 14893.8 
6.44e-06 12.6107 -14.2643 -1.35213e-09 97312.3 97415.5 97189.7 -44.7162 34912.5 -29798.7 -8018.2 
6.52e-06 13.2095 -14.3157 -2.40129e-09 97348.8 97275.2 97435.4 -1.99757 -60777.4 184.793 -32193.9 
6.6e-06 12.6471 -13.6765 -3.65412e-09 97299.6 97393.6 97300 60.9186 -21053.8 -29061.7 -2809.58 
6.68e-06 13.331 -14.2054 -6.14782e-09 97131.5 97199.6 97079 -125.345 -14546.4 13414.7 -15412.4 
6.76e-06 12.9772 -14.4057 7.77667e-09 97185.4 97132 96991.9 -41.9012 53617.3 28469.9 -23238 
6.84e-06 13.2793 -14.4115 9.84135e-10 97238.6 97397.9 97359.3 -40.2614 37396 1187.78 10600.2 
6.92e-06 14.136 -14.3573 1.86247e-09 97152.8 97262.9 97141 -46.2146 11602.8 -37693.7 37190.4 
7e-06 14.3124 -13.9506 -1.47528e-09 97148.5 97122.3 97126.4 48.3208 19482.9 -13296.1 -11570.6 
7.08e-06 14.1165 -14.141 -5.61136e-09 96920.9 97097.1 96885.5 38.5423 37457.6 -5019.98 -2578.52 
7.16e-06 14.2884 -14.169 2.01213e-10 97538.8 97589.7 97538.7 -98.6712 -5068.76 14236.7 9212.83 
7.24e-06 14.1143 -14.174 3.09198e-09 97318.6 97233.2 97105.7 74.1814 -14585.3 -32787.5 -65390.4 
7.32e-06 14.3213 -14.3628 -3.74988e-09 97385.2 97418.6 97327.8 -95.2288 36202.2 12030 33924.1 
7.4e-06 15.0579 -14.0069 5.59696e-09 97383.7 97438.6 97518.4 -12.604 18941.5 -21216.7 -20348 
7.48e-06 14.7855 -14.1879 -3.11884e-09 97355 97485.9 97377.7 -39.0696 -13630.4 45475.4 51583.7 
7.56e-06 14.8256 -14.1059 3.6899e-10 97590.9 97515.9 97467.6 -27.0872 -1973.28 14725.2 -14324.8 
7.64e-06 14.711 -14.2318 -1.15799e-09 97347.4 97326.3 97159.2 -167.911 1789.87 15410.1 2995.35 
7.72e-06 15.6902 -14.6628 3.67163e-09 97429.9 97427.9 97418.7 -93.5306 -15495.5 -11196.4 25027.3 
7.8e-06 15.2628 -13.8789 -3.10769e-10 97317 97465 97257.6 -37.5354 -5485.54 -14130.1 515.623 
7.88e-06 15.5033 -14.4506 7.42211e-11 97220.2 97450.3 97329.9 33.6192 -1170.46 16601.2 29752.9 
7.96e-06 15.8157 -14.1812 4.16298e-09 97132.9 97141.3 97056.2 -22.1954 -8348.19 2192.71 31821.1 
8.04e-06 16.9092 -14.6128 -3.89086e-10 97411.6 97421.5 97525.1 -9.84236 -22580.4 10862.3 14297.5 
8.12e-06 16.1299 -14.0166 4.04191e-09 97557 97567.1 97544 -8.64504 53798.2 -21406.3 -41250.1 
8.2e-06 17.7023 -13.9427 -2.02162e-09 97418.4 97475.2 97616.5 -54.9328 -34999.4 13818.2 -48953.3 
8.28e-06 17.7101 -13.888 -3.60372e-09 97311.6 97402.4 97431.4 -118.805 5166.03 6709.38 31216.7 
8.36e-06 18.0996 -14.2415 -4.49618e-09 97141.5 97337 97297.4 -27.0029 25970.6 9593.56 -36070.6 
8.44e-06 17.9555 -14.3083 -3.47639e-09 97741.5 97668.9 97597.7 -13.9427 9647.79 4033.76 29850.9 
8.52e-06 17.2373 -14.5567 -5.8824e-09 97905.1 97667.3 97734.2 91.9244 59659.9 14160.8 21951.5 
8.6e-06 16.7359 -13.8584 3.2725e-09 97576.2 97589.4 97539.4 -93.9282 54759 -23472.6 13915.5 
8.68e-06 19.1241 -14.3309 1.28607e-09 97930.8 97678.5 97839.8 -28.6903 -32487.8 8587.95 -5646.93 
8.76e-06 19.1802 -14.1534 -2.527e-09 97522.8 97330.3 97383.7 -56.1079 -1995.23 15009.7 -17262.8 
8.84e-06 18.0351 -14.3022 1.76794e-09 97265.7 97426.9 97221.3 18.6146 -30285.9 -38329.7 -86699.8 
8.92e-06 17.8609 -14.4533 -5.62813e-09 97541.1 97743.6 97429.9 -25.804 5521.88 11495.1 46003 
9e-06 17.7235 -13.8309 8.92154e-10 97218 97347.8 97218.7 -141.241 40920 -12244.7 38022.2 
9.08e-06 18.6644 -14.2615 2.03421e-09 97257.8 97275 97423.5 -16.4323 -7651.17 18621.6 28318.7 
9.16e-06 18.643 -13.8186 5.11523e-09 97549.9 97538 97592.8 -41.5407 5483.56 -32452.9 18436.2 
9.24e-06 19.3781 -14.068 5.68682e-09 97594.7 97456.5 97546.3 -13.5314 -2245.75 -12623.6 -23532.8 
9.32e-06 18.9981 -14.1721 -6.02949e-09 97582.4 97496 97612.7 2.52887 55295.8 -49048.7 -28145.3 
9.4e-06 19.6675 -13.9442 2.95258e-09 97210.4 97664.6 97610.7 72.4466 -1397.7 -33986.3 19177.8 
9.48e-06 19.5647 -14.5423 2.14276e-09 97675.6 97699.6 97429.4 -5.17073 3862.27 -15865.3 7598.16 
9.56e-06 20.1159 -14.4008 -1.99756e-09 97681.3 97738 97834.9 -34.6225 28517.4 -2933.73 28511.8 
9.64e-06 20.2099 -14.3779 9.72838e-10 97539.2 97638.8 97527.6 -17.3391 375.64 51539.4 -35555.7 
9.72e-06 20.1914 -14.007 1.1681e-09 97699.5 97723 97614.3 -31.4854 -10461.4 -45701.4 109135 
9.8e-06 20.1459 -14.1047 1.96883e-09 98142.4 97729.8 98050.9 -115.927 8984.16 -5547.82 -17421.6 
9.88e-06 20.5907 -13.7141 -6.75195e-09 99109.3 97878.2 98980.5 53.5983 -24710 -46177.7 80143.9 
9.96e-06 20.045 -14.4109 2.78483e-09 104127 99854.5 104265 -1.60729 -58771 -6945.99 5125.73 
