ITEM: TIMESTEP
1000000
ITEM: NUMBER OF CELLS
125
ITEM: BOX BOUNDS pp ss pp
0 0.0001
0 1e-05
0 0.0001
ITEM: CELLS yc f_vel[1] f_vel[2] f_vel[3] f_mom[1] f_mom[2] f_mom[3] f_mom[4] f_q[1] f_q[2] f_q[3] 
4e-08 -0.343835 -0.271 -4.11859e-09 102928 106134 103510 259.542 -85755.7 -20604.3 -70937.1 
1.2e-07 -1.4337 -0.5421 9.59208e-09 102786 104891 102583 -90.5219 60815.3 83358.8 58013.4 
2e-07 -1.58718 -0.568067 -1.01642e-08 102855 105505 103059 192.961 52992.9 133065 -27531.2 
2.8e-07 -1.60053 0.0445418 6.44108e-09 103049 105423 103151 -11.5513 33838.9 11333.3 -82158.2 
3.6e-07 -0.948588 -0.190151 -3.3337e-09 103115 105426 103191 3.01586 20615.9 38300.9 -1507.85 
4.4e-07 -0.297043 -0.37496 1.07948e-09 103451 105488 103304 62.0837 8177.59 105647 26763.6 
5.2e-07 -1.78132 0.379694 8.97245e-10 103354 105063 103694 -72.7908 114493 -57151.6 -69904.9 
6e-07 -0.234195 0.0948244 4.1883e-09 102687 105127 102707 -10.4035 -23278.3 25736.8 -70366.5 
6.8e-07 -0.73969 -0.00592967 -9.71624e-10 103468 105659 103546 -26.9434 23839 -22056.3 -8183.05 
7.6e-07 -0.676925 0.152004 -3.20943e-09 103177 105506 103559 10.2187 -42547.5 -23362.8 -40054.7 
8.4e-07 -1.53376 0.0107048 -3.66967e-09 102942 104846 102777 -22.2567 10049.2 -9625.9 -25740.9 
9.2e-07 -1.3963 -0.116149 5.44951e-09 103005 104847 102794 -120.442 75639.4 5666.23 35002.8 
1e-06 0.692821 0.174674 -4.17652e-09 102855 104739 102437 26.9869 -103954 -43613.2 31889.9 
1.08e-06 -0.966604 1.06002 6.44661e-10 103052 105149 102836 30.1801 -57277.2 -79563.8 14541.8 
1.16e-06 -0.539237 0.293723 3.87404e-09 102793 104580 102415 -136.17 29181.1 6107.94 -25019.1 
1.24e-06 0.948492 -0.508291 4.84547e-09 103203 105274 103174 -63.3721 -64881.1 41266.3 -14679.1 
1.32e-06 1.10601 0.432251 5.36969e-09 102913 105112 102883 -17.7596 -51179.6 -70461.7 -83990 
1.4e-06 1.26782 -0.221764 -2.90307e-09 102557 104859 102834 -109.669 22994.4 27238.5 2533.82 
1.48e-06 2.24088 0.0661486 3.8901e-09 103453 105489 103544 -120.958 48734.5 -11080.8 -12257.2 
1.56e-06 2.49498 -0.124299 1.76508e-10 102862 104845 103000 -194.33 -22125.9 6261.11 137096 
1.64e-06 3.02571 0.515635 8.97107e-09 102876 104944 103191 -49.0132 72510.8 -39149 16752.2 
1.72e-06 3.20972 -0.0431274 2.52163e-10 103965 105834 104110 -37.1022 1048.76 -24051.7 -34682.5 
1.8e-06 3.6457 -0.749881 5.8061e-09 102555 104497 102731 -123.586 29944 52797.1 17530.1 
1.88e-06 3.00297 -0.338487 -5.48383e-09 103531 105147 103305 145.539 101547 27756.2 -34193.6 
1.96e-06 3.61597 -0.149443 6.20615e-09 103116 104796 102945 -236.119 74084.3 -73891.3 -28729.9 
2.04e-06 3.2638 0.29127 -1.23613e-08 103069 104567 103017 153.935 23118.2 -45677.4 -167927 
2.12e-06 4.07001 -0.198085 -6.52677e-09 103725 105687 103954 52.5604 -66867.5 -2881.93 -63490.7 
2.2e-06 4.12141 -0.522944 -5.32661e-09 103242 105043 103453 1.93796 -28681.2 56945.7 5162.6 
2.28e-06 3.29825 -0.234477 7.04558e-09 102885 105100 102969 56.7138 -47097.3 -35950.3 -32649.1 
2.36e-06 3.11337 -0.176709 -6.34347e-09 103525 105218 103404 80.2622 23242.4 22942.1 -61205 
2.44e-06 2.34928 0.0169258 6.46476e-09 102397 104600 102726 -175.983 76198.4 -6818.53 1881.42 
2.52e-06 4.24612 0.229957 1.43577e-08 102820 104708 102695 -127.848 65058.7 -50855.6 -110656 
2.6e-06 4.33387 0.39285 -1.09968e-08 103109 104847 102983 124.596 10599.1 -65513.9 46167.8 
2.68e-06 3.54644 -0.750867 3.69346e-09 102983 104938 103096 -73.382 -13309.4 -1866.84 -21550.8 
2.76e-06 3.45247 0.450746 8.55381e-09 103183 105240 103452 -171.056 -28446.5 -16222.6 -40319.7 
2.84e-06 4.84274 -0.532716 3.90504e-09 103482 105351 103449 -152.632 -55079.2 81996.4 -14117.1 
2.92e-06 5.38174 -0.0800807 3.82473e-09 102519 104533 102469 -175.626 -87904.3 -32978.4 -30626.5 
3e-06 4.67715 0.266937 -7.05547e-09 103336 105414 103299 -29.3685 10392.3 -2323.14 17061.6 
3.08e-06 5.74232 -0.311525 7.89028e-09 103265 105254 103505 -92.6142 5612.18 13675.6 14280.6 
3.16e-06 6.02737 0.0533884 -5.35949e-09 103423 105255 103365 64.3866 -11545.3 22845.9 22913.3 
3.24e-06 6.46916 0.0423057 2.16475e-09 103228 105016 102955 95.3524 -64819.5 -78381.1 7019.66 
3.32e-06 6.20958 1.05407 1.3729e-10 102884 105040 103044 -3.10777 -118949 -150266 65162 
3.4e-06 6.1628 -0.375621 1.57719e-09 102918 104744 102607 -26.2809 -9806.43 27301.7 -17608.7 
3.48e-06 6.34843 -0.432495 6.78852e-09 102856 104870 102974 85.5221 -9315.06 45185.5 91553.8 
3.56e-06 6.41621 0.0716246 8.60621e-09 103266 104889 102814 82.6264 27765.3 -93566 7713.69 
3.64e-06 7.25964 -0.306782 6.90092e-09 103426 105259 103560 -103.765 -34738.1 702.547 -43062.3 
3.72e-06 7.5232 -0.0251533 -2.44298e-09 103389 105052 103167 47.7478 -12219.4 39693.4 73377.8 
3.8e-06 8.27499 -1.06785 4.32261e-09 103785 105282 103518 -91.0544 -71980.5 82101.4 -116539 
3.88e-06 8.24253 0.231695 1.10961e-08 102631 104918 102986 -1.03515 -71274.5 6713.21 10889.3 
3.96e-06 9.31529 0.714578 9.80664e-09 103459 105238 103537 -81.9922 -37237 -6086.43 -13124.9 
4.04e-06 9.20563 0.985819 2.13791e-09 103070 104920 103010 -16.4574 -43202.1 -36574.7 -40626.9 
4.12e-06 10.5316 -0.0710414 -3.65767e-09 103471 105468 103423 101.4 -46236.2 -12848.9 49033.4 
4.2e-06 9.81508 0.129273 6.63269e-09 102496 104867 102547 -180.468 -69702.4 15784 37213.5 
4.28e-06 9.64271 0.741619 9.74641e-10 102759 104779 102455 50.6874 -29737.3 -84756.9 6329.71 
4.36e-06 9.24878 -0.910885 2.33039e-09 103918 105522 103681 76.9358 100.578 98884.4 78673 
4.44e-06 10.5624 -0.371546 7.61058e-10 103413 105351 103360 -1.23971 18683.9 17882.4 -78847.1 
4.52e-06 10.3295 -0.13398 -5.32028e-09 102354 104500 102505 101.795 9046.76 -5647.26 17862.7 
4.6e-06 10.0843 -0.769879 -6.44512e-10 102854 104651 102913 7.31152 -21222.3 32172.4 -16950.3 
4.68e-06 10.1525 -1.03053 -9.71681e-09 103033 104998 103067 177.522 10059.1 -8697.8 26797.3 
4.76e-06 9.9799 -0.272324 1.05557e-10 102949 104913 103000 -105.52 32983.1 -508.9 -78720 
4.84e-06 10.9521 -0.304889 -3.84407e-09 102833 104746 102518 -134.959 -45645.4 63517.2 -94212.3 
4.92e-06 10.3258 1.38229 -2.82711e-09 103059 105183 103078 -93.0767 -8712.23 -95498.6 -4125.96 
5e-06 11.5678 -25.5189 3.91212e-08 109005 111907 109036 80.2726 -36093.8 1.31842e+06 53178.1 
5.08e-06 10.5416 21.4511 -2.09448e-08 107876 109886 107830 53.4066 78244.3 -1.13917e+06 -116665 
5.16e-06 12.5614 -0.206478 -1.62519e-10 102958 105328 103221 77.4354 -22693.7 31748.8 -47408.5 
5.24e-06 11.7921 -0.0597353 3.8029e-09 102948 105414 103206 -100.713 110723 16582.2 54063.5 
5.32e-06 12.5564 0.0903796 1.05751e-08 103639 105848 103586 -57.882 -48430.7 -45567.3 98218.3 
5.4e-06 12.2405 0.811669 -4.8939e-09 103263 105473 103095 56.6276 -54607.4 -55089.8 51991.7 
5.48e-06 11.444 0.207739 -1.71584e-09 103209 105278 102906 -73.8589 74961.6 10755.7 32303.9 
5.56e-06 12.044 -0.197977 1.18483e-08 103499 105530 103425 -240.765 59181.7 -17260.5 -9478.98 
5.64e-06 13.3362 0.201361 5.01822e-09 102935 105252 103162 -150.952 7230.09 -40125.2 -32332.7 
5.72e-06 14.8266 -0.356811 4.30601e-09 103244 105260 103556 -197.495 -65387.8 12829.3 61817.1 
5.8e-06 13.3752 1.09852 -2.88727e-10 101991 104667 102328 -60.4915 -24543.9 -81682.2 -64248.8 
5.88e-06 13.7901 0.833192 8.04051e-11 103214 105086 103159 -29.4109 19287.6 -30577.5 13439.9 
5.96e-06 13.6628 -0.570394 9.08918e-10 102143 104703 102714 58.0496 -28397.4 -4547.93 -54132.8 
6.04e-06 13.6617 0.123033 1.62027e-09 103125 105252 103255 -47.0255 40257.7 40742.7 39267.3 
6.12e-06 14.249 0.587235 -1.30213e-08 103383 105208 103740 -104.834 77832.4 -10428.4 -92382.3 
6.2e-06 15.4266 0.0201954 -3.45923e-09 102882 105243 102880 -167.313 -79977 23616.7 45109.3 
6.28e-06 13.9549 -0.622651 -6.38461e-09 103515 105355 103566 -50.5397 37225.7 82581.7 -4980.6 
6.36e-06 15.568 0.532926 8.97933e-09 103120 105496 103506 -3.07485 -85955.6 -51482.8 -14537.4 
6.44e-06 16.269 0.186404 -4.7353e-09 103300 105473 103444 -34.3256 -16517.2 -53457.5 3888.96 
6.52e-06 15.7046 0.310964 -1.9626e-09 103325 105346 102993 12.0619 43764 -25751.9 -39900.9 
6.6e-06 15.9337 -0.287162 3.2136e-09 102618 104937 103035 -95.1015 -12849.2 -91347.5 -13870.7 
6.68e-06 16.1231 -0.062825 -5.81568e-09 103386 104916 103442 52.0622 -10624.5 29159.8 113647 
6.76e-06 15.974 0.515399 -1.05736e-08 103156 104734 103180 186.364 1867.99 -68564.1 -39742.6 
6.84e-06 16.5329 -0.139242 7.17604e-09 103185 105126 103141 -201.101 25422 -3082.54 31930.1 
6.92e-06 17.1478 0.34085 -5.46841e-09 103193 104776 103076 -37.5245 -13913.2 -16295.2 11333.7 
7e-06 16.9351 0.678712 -5.36283e-09 102659 104900 102815 -199.092 12512.4 -65699.2 -7695.08 
7.08e-06 16.7573 -0.611787 -5.99036e-09 102920 105146 103023 -73.8678 32171.6 53317.7 30389.5 
7.16e-06 16.5453 0.272484 2.63535e-09 102972 105002 103234 -81.2766 -36906 68792 47900.7 
7.24e-06 16.7717 -0.111106 5.35929e-09 103429 105320 103396 -6.14897 -81365.9 12168.9 -18231.6 
7.32e-06 17.6798 -0.445013 -1.72775e-10 102927 104927 102848 -52.9739 5030.85 22421.3 -6474.78 
7.4e-06 17.0516 0.399945 4.98502e-09 103193 105046 103142 -16.839 -17904.6 -71650.3 31995.2 
7.48e-06 17.2525 0.32657 -6.41597e-09 103323 105127 103111 -81.6657 -25138 -3248.67 6000.19 
7.56e-06 16.6577 0.54603 8.15544e-10 103115 104926 103006 -39.6762 36644 17430.4 -34851.1 
7.64e-06 16.7161 -0.0350658 5.00275e-09 103202 105323 103188 -129.295 50891.2 23252.7 37954.5 
7.72e-06 17.5074 -0.368566 3.90506e-09 103694 105298 103705 25.2545 -42541.1 7671.55 -89888.2 
7.8e-06 18.0067 -0.715123 -3.6574e-09 103094 104830 103268 -105.041 -118670 112141 -25829.2 
7.88e-06 18.2397 -0.128427 1.96608e-10 102666 104518 102905 -141.819 -67701.6 -43394.7 -14977.6 
7.96e-06 16.9278 0.349371 -1.10944e-08 103196 105000 103333 15.9502 63204.9 -59538.7 10386.1 
8.04e-06 17.0408 0.337601 -4.00306e-09 103524 104982 103571 -120.548 80763.9 -33020.6 59280.3 
8.12e-06 17.8976 -0.232137 -7.35895e-09 102627 104780 102806 -6.41616 -34167.7 28927.7 -19387.3 
8.2e-06 16.6649 0.250829 -1.82287e-09 102974 104871 102953 -19.9066 15896.8 -62390 -44402.7 
8.28e-06 16.0048 0.504247 -1.20397e-09 103283 105232 103383 -15.5138 -3479.69 21823.9 -42328.5 
8.36e-06 15.6057 -0.272121 3.9789e-09 102853 105210 103022 -84.6362 79941.5 24851.2 -14361.6 
8.44e-06 18.0143 -0.082246 3.06487e-09 102719 104837 103081 -15.1064 2889.99 -12426.8 -12680.6 
8.52e-06 17.9694 -0.362814 -3.89918e-09 103137 104967 103264 15.6491 -41779.9 27069.6 59542.3 
8.6e-06 17.6278 0.362833 -1.48965e-09 102872 104903 103161 -130.769 9529.34 -15685.9 -8157.46 
8.68e-06 18.7765 0.0274432 -5.98165e-09 102845 104825 102701 -13.1588 -6813.96 -10524.5 -36250.3 
8.76e-06 17.0954 -0.694288 -1.41537e-09 103297 105153 103050 16.4648 75706.4 73381.3 -1595.01 
8.84e-06 17.692 -0.251974 1.72825e-09 102484 104485 102620 -41.4853 56224.9 16804.1 44528.2 
8.92e-06 17.7095 -0.15297 -4.15396e-09 103265 105229 103268 -40.73 30633.4 -16677.1 -28978.8 
9e-06 17.8742 -0.431941 -7.34301e-09 102989 104918 103040 43.0624 26494.9 1436.41 -14711.5 
9.08e-06 18.2054 -0.191122 1.12191e-08 102924 105022 103193 -72.5465 21449.8 -39362.4 -22390.7 
9.16e-06 18.69 -0.22206 -4.54385e-09 102703 104897 102603 6.4868 46805.8 -4242.33 -56802.6 
9.24e-06 19.0026 -0.252266 -1.64313e-09 103223 104902 102961 179.955 -35928.4 -11305.4 51690.6 
9.32e-06 19.4478 -0.251932 -2.11383e-09 103732 105675 103502 46.2373 -69880.3 47083 -25931.7 
9.4e-06 19.2571 -0.279511 1.04598e-08 103786 105424 103497 -140.164 -3651.48 11665 -38907.8 
9.48e-06 18.4253 -0.40706 -1.3756e-08 102474 104702 102365 63.2046 58151.1 15538.9 -51877.8 
9.56e-06 18.0235 -1.17216 8.29739e-09 103199 105047 102871 -27.2028 50930.2 44156.1 -16767.1 
9.64e-06 17.2004 -0.162054 9.30982e-09 102646 104858 102551 -31.3397 45718.2 26727.6 -54179.2 
9.72e-06 18.2002 -1.82853 -8.23867e-09 102264 104365 102362 138.333 -14675.7 88010.3 -18949.9 
9.8e-06 19.2621 0.249451 -1.84945e-09 102988 105183 103118 66.7668 -35678.2 -47301.4 -14423.7 
9.88e-06 18.6463 0.655343 -8.4214e-09 102429 104867 102323 61.1105 -119266 -86154.5 10619.2 
9.96e-06 19.2675 -0.396546 8.60979e-09 102873 106053 102995 -179.94 -105638 106737 39943.9 
