ITEM: TIMESTEP
1000000
ITEM: NUMBER OF CELLS
125
ITEM: BOX BOUNDS pp ss pp
0 0.0001
0 1e-05
0 0.0001
ITEM: CELLS yc f_vel[1] f_vel[2] f_vel[3] f_mom[1] f_mom[2] f_mom[3] f_mom[4] f_q[1] f_q[2] f_q[3] 
4e-08 0.882362 14.7492 -1.46572e-08 125967 131650 126201 -341.431 168637 -1.80785e+06 28518 
1.2e-07 2.47527 -0.952126 7.62583e-09 127450 131215 127448 -651.634 137187 -836831 -56013 
2e-07 4.62212 -0.451411 6.6521e-10 127846 131090 128009 -587.472 53819.7 -855332 74292.5 
2.8e-07 6.65757 -1.11165 7.54315e-09 128613 130993 128417 -572.488 48822.7 -838781 64270.4 
3.6e-07 7.83893 -1.32935 7.57187e-09 128168 131119 128470 -586.898 94270.4 -742178 9337.33 
4.4e-07 10.4755 -1.24469 7.32278e-09 128318 130899 128247 -459.874 -347.14 -737387 58949.9 
5.2e-07 12.5998 -1.73134 8.02005e-09 128269 130844 127935 -586.197 31251.2 -733655 11794 
6e-07 13.5325 -2.18855 1.07171e-09 128326 130835 128245 -695.888 138331 -705518 88830.5 
6.8e-07 16.1383 -2.98097 6.89788e-09 128150 130714 127910 -657.816 -27172.9 -655965 43677.4 
7.6e-07 18.1583 -3.04359 8.14557e-09 128519 130851 128378 -614.683 -72401.5 -642388 54088.2 
8.4e-07 19.5985 -2.3425 4.53273e-09 128132 130873 128155 -473.17 16350.9 -735241 -55093.8 
9.2e-07 20.9907 -3.49402 2.35623e-09 127978 130709 128324 -541.727 72393.9 -692166 7756.54 
1e-06 22.4304 -3.43542 5.0932e-09 127983 130283 127771 -369.703 21797.1 -625999 32705.6 
1.08e-06 25.037 -4.70808 6.73068e-09 128503 130688 128216 -495.618 -70143.6 -588369 3118.95 
1.16e-06 25.7953 -3.68111 2.57032e-09 128674 130658 128289 -381.083 93954.1 -551982 8240.12 
1.24e-06 28.0178 -4.0369 5.13947e-09 128301 130655 128072 -478.378 -87519.7 -563770 23899.7 
1.32e-06 28.4612 -4.93011 9.77745e-09 128109 130402 128164 -420.654 7197.17 -535999 -6490.46 
1.4e-06 30.6134 -4.28871 1.07674e-08 127770 130290 127686 -472.601 -17504 -630763 15824.7 
1.48e-06 32.3172 -4.63039 1.11808e-08 128344 130410 128159 -444.849 27486 -545829 -28674.8 
1.56e-06 32.9755 -5.40796 7.32022e-09 128003 130534 127798 -381.454 66964.2 -477011 48773.7 
1.64e-06 34.7172 -4.96524 5.4006e-09 128013 130646 128158 -522.892 3328.94 -480701 25710.1 
1.72e-06 35.3441 -5.22913 1.80579e-09 128024 130238 128094 -421.99 -3397.7 -463648 -5990.45 
1.8e-06 37.1915 -5.85777 9.34409e-09 128245 130218 127867 -459.762 24897.7 -522941 -13169.9 
1.88e-06 38.7913 -5.98519 7.01611e-09 127933 130085 128073 -417.37 29673.5 -570368 -27315.2 
1.96e-06 39.463 -6.27693 8.49634e-09 128745 130488 128341 -569.884 -12385.5 -408031 82762.4 
2.04e-06 41.1841 -6.63096 7.15749e-09 127845 130069 127970 -358.898 13928.8 -483170 -60646.6 
2.12e-06 42.686 -6.79753 5.65363e-09 127864 130224 128388 -471.866 74497.2 -431690 29480.4 
2.2e-06 43.2864 -6.47829 3.72727e-09 127975 130114 128117 -464.986 -21071.5 -428490 42285.9 
2.28e-06 45.3589 -6.88812 1.53357e-08 127965 130038 127983 -396.56 -6634.47 -379425 2139.51 
2.36e-06 46.4071 -6.84651 1.23419e-09 128207 130191 128122 -330.169 -50889.7 -440990 15105.4 
2.44e-06 47.0917 -7.28558 9.07921e-09 128057 130199 128175 -356.982 59440.8 -399128 -24582 
2.52e-06 48.3518 -7.34416 9.36232e-09 127948 129986 127971 -235.228 -97781.1 -400639 -81913.3 
2.6e-06 49.3908 -7.28403 3.00233e-09 128125 130313 128046 -327.707 -89240.5 -375588 83715.1 
2.68e-06 49.531 -7.71886 1.44247e-08 127484 129638 128003 -266.344 -97128.6 -432839 50373.9 
2.76e-06 50.4111 -7.96596 1.10269e-08 128276 130236 128081 -478.323 -73305.5 -379107 -25630.2 
2.84e-06 51.1676 -8.03637 6.32686e-09 127847 129852 127913 -386.856 23937.1 -399675 -14637.9 
2.92e-06 52.9158 -8.42586 4.51045e-09 128137 129990 127985 -276.797 -22198.5 -366275 72418.6 
3e-06 53.9081 -8.85958 1.24534e-08 127899 129915 127755 -282.53 -8322.25 -344530 -6253.94 
3.08e-06 54.9667 -8.55222 1.00366e-08 127898 129864 128222 -300.763 61863.8 -162333 -36425.7 
3.16e-06 55.0066 -8.94756 6.65812e-09 128254 130080 127813 -374.95 49632.3 -353052 3806.94 
3.24e-06 55.6013 -9.24227 1.22687e-08 128238 129840 128142 -231.444 34446.9 -230853 29079.9 
3.32e-06 58.544 -9.47737 1.35695e-08 128289 129830 128159 -210.006 -125107 -210624 122913 
3.4e-06 57.7986 -9.49467 1.2477e-08 127978 129786 127740 -231.072 82217 -260248 117989 
3.48e-06 58.6738 -10.0181 9.03564e-09 128254 130271 128406 -248.843 86634.1 -243596 59190.8 
3.56e-06 58.9649 -9.90556 1.58023e-08 127894 130023 127926 -340.073 15371 -352819 84891.7 
3.64e-06 61.2718 -9.64816 9.14049e-09 127928 129753 127739 -296.022 -68309.4 -271444 -10631.5 
3.72e-06 60.8935 -10.3694 1.91991e-08 128075 129959 128029 -183.989 104749 -206543 -107874 
3.8e-06 60.4084 -10.3555 7.97357e-09 127746 129501 127901 -140.511 28851 -148100 71776.8 
3.88e-06 61.2 -10.3585 1.27586e-08 127971 129684 127757 -329.468 89048.5 -254278 65286.5 
3.96e-06 61.996 -10.9935 1.21234e-08 127793 129663 128250 -31.1041 -2111.16 -158827 140967 
4.04e-06 62.3752 -10.7916 5.10072e-09 127836 129755 127960 -90.4503 100037 -200385 59811.6 
4.12e-06 61.9132 -11.0828 1.22376e-08 127852 129729 127856 -181.956 85823.9 -168609 38711.8 
4.2e-06 62.9614 -11.1273 1.26084e-08 128571 130096 128246 -295.918 139081 -134753 37905.7 
4.28e-06 63.8408 -12.0626 5.92874e-09 128239 129959 128152 -180.627 -52523.4 -203609 -78967.6 
4.36e-06 64.1241 -11.2455 1.02073e-08 128323 129752 128111 -124.564 -108879 -146938 19204.4 
4.44e-06 64.5108 -11.4169 1.4515e-08 127950 129868 127737 -163.934 22770.2 -123208 29884.5 
4.52e-06 65.2043 -12.1748 1.1964e-08 127891 129777 127519 -186.043 18712 -135737 27510.1 
4.6e-06 66.4667 -11.8394 6.92033e-09 128246 129938 128268 -88.3146 -3516.05 -122889 12017.1 
4.68e-06 65.9976 -12.3696 5.23688e-09 127932 129699 127662 -61.2244 40061.8 -84496.8 75187.8 
4.76e-06 64.6969 -12.6249 1.42019e-08 128058 129601 128132 5.93875 56697.1 -110923 60425.7 
4.84e-06 65.2091 -12.359 1.73926e-08 127937 129981 128244 -275.029 68254.4 -35577.9 14377.3 
4.92e-06 65.56 -12.7227 1.71325e-08 127834 129736 127943 -127.508 195758 -104443 99681.1 
5e-06 65.9132 -12.9113 5.1841e-09 127960 129701 127822 37.3644 92133.2 -89499.1 17334.9 
5.08e-06 66.6898 -13.5298 1.23619e-08 128057 129871 128162 43.7686 7922.49 -47823.6 -106235 
5.16e-06 66.053 -13.4111 1.02824e-08 127986 129918 127986 47.2259 86510.4 -97007.7 29608.2 
5.24e-06 67.504 -13.987 1.28373e-08 127558 129499 127638 24.3135 16758.4 18377.5 -182.024 
5.32e-06 66.8295 -13.7132 1.35968e-08 128448 129852 128259 16.0776 120551 -79680.2 56172.1 
5.4e-06 67.5576 -14.3436 2.54586e-08 127549 129468 127613 -8.02214 94563.1 -40450.6 26363.3 
5.48e-06 67.9704 -13.3922 1.19051e-08 127790 129545 128189 -57.4747 144768 -120126 40872.2 
5.56e-06 67.5047 -14.5843 1.5084e-08 127760 129648 127775 49.7089 43981.3 1305.9 -44206.3 
5.64e-06 68.5836 -14.7134 1.81777e-08 128041 129572 127627 92.8268 -15936.7 42018.6 17355.7 
5.72e-06 69.0032 -15.2442 1.04126e-08 127913 129610 127831 67.6964 -71815.9 68179 -95356.3 
5.8e-06 67.7213 -15.0097 1.76523e-08 127886 129775 128068 -69.6449 46318.9 87032.5 -33567.9 
5.88e-06 68.5836 -14.6792 1.48226e-08 128132 129905 128112 8.91259 -91015.3 991.183 -26038.2 
5.96e-06 67.4649 -15.5454 1.49316e-08 127815 129516 127929 105.086 -5318.66 102313 23239.2 
6.04e-06 67.8706 -15.827 1.40075e-08 128270 129982 127968 80.1961 -104043 80237.8 98727.6 
6.12e-06 66.2404 -15.9702 2.21338e-08 127633 129628 127391 38.6183 53353.8 67523.9 129395 
6.2e-06 66.2436 -15.7601 1.43882e-08 127525 129467 127602 35.6499 149722 61781.6 -15015.4 
6.28e-06 66.1515 -16.6806 8.08685e-09 127900 129513 127931 179.075 47721.1 113714 -13810.4 
6.36e-06 66.121 -16.2418 9.05709e-09 128192 129855 128300 200.569 13737.7 84323.1 180001 
6.44e-06 65.8783 -17.0075 1.35152e-08 127821 129816 127891 153.37 10529 172978 5509 
6.52e-06 64.018 -16.6903 6.40943e-09 127983 129679 127697 252.597 92241 133027 -48124.8 
6.6e-06 64.0003 -16.8769 1.84453e-08 127541 129369 127503 111.532 63421 102776 5333.5 
6.68e-06 63.1265 -17.7073 1.51054e-08 128170 129808 128033 173.707 141821 190203 -38009.2 
6.76e-06 62.9665 -17.7582 1.51455e-08 128271 129728 127873 -20.0937 -15347.6 174965 77852.8 
6.84e-06 63.2571 -17.6686 4.70437e-09 128050 129864 127822 264.033 -12215.4 235762 -9784.37 
6.92e-06 63.2792 -18.3878 1.51076e-08 128454 129951 128159 34.3808 -43531.8 258083 -4008.59 
7e-06 62.5697 -18.6951 1.2478e-08 128111 129774 128186 4.85714 -127511 197701 56226.4 
7.08e-06 61.2713 -19.5229 -1.4791e-09 128089 129938 128400 211.78 -6402.47 341061 17517.3 
7.16e-06 61.2742 -19.3993 1.49945e-08 128331 129932 127940 115.203 -126716 297592 103628 
7.24e-06 60.8917 -19.9717 2.91581e-09 127937 129856 127664 261.406 45395.7 347436 20997.3 
7.32e-06 58.945 -19.7536 1.11184e-08 128353 130251 128205 244.658 105390 337024 -39269.8 
7.4e-06 59.7764 -20.6748 1.92621e-08 128011 130017 128033 149.838 13629.9 430076 20617.2 
7.48e-06 58.9916 -20.421 1.32617e-08 127786 129903 127639 34.4325 48349.8 351364 59922 
7.56e-06 58.7479 -20.8518 1.26981e-08 127800 129902 127869 217.22 -66360 385416 8300.28 
7.64e-06 57.0887 -21.3376 1.12829e-08 127719 129726 127668 368.121 49601.9 416515 29206.7 
7.72e-06 57.28 -21.2322 1.54817e-08 128319 130285 128301 299.735 18425.9 332322 -40283.7 
7.8e-06 55.3576 -21.9057 4.71241e-09 128641 130275 128762 376.18 -2860.6 356385 141655 
7.88e-06 54.8831 -22.1846 8.8398e-09 128189 130219 128561 257.244 -19583.7 469096 -111403 
7.96e-06 54.237 -23.1938 7.14304e-09 127908 130022 128170 416.522 12394.7 548797 -15843.1 
8.04e-06 54.7388 -22.9263 7.23453e-09 128488 130176 128000 309.814 -142717 551823 36785.4 
8.12e-06 52.301 -23.8365 1.10599e-08 128482 130369 128729 311.489 79982.7 527672 -49681.6 
8.2e-06 51.6773 -24.2926 7.07811e-09 128603 130293 128107 216.303 39665.5 576180 44707.3 
8.28e-06 51.1793 -24.3829 1.92649e-09 127722 129550 127503 444.543 36384 551581 -38711.6 
8.36e-06 49.3663 -25.0482 3.25352e-09 127781 129857 127725 573.161 13375.5 602016 24217.2 
8.44e-06 47.9723 -24.9021 5.47273e-10 127496 129736 127314 420.362 10721.5 623276 29069.5 
8.52e-06 46.0886 -26.2378 2.58748e-09 128163 130428 128033 604.168 38538.6 586790 -5311.45 
8.6e-06 46.0024 -27.9972 1.55239e-09 129041 130671 128771 399.389 26315.6 778522 -120466 
8.68e-06 45.0789 -27.6337 4.99639e-09 128228 130269 128360 407.098 -5044.16 759494 81170.4 
8.76e-06 43.4392 -27.5357 -1.95675e-09 127843 130178 127631 549.856 17176.3 772920 35396.5 
8.84e-06 41.2962 -28.6185 -3.34414e-09 128284 130506 128035 633.299 38072 799594 93123.4 
8.92e-06 39.7929 -29.6306 -5.67673e-09 128389 130443 128468 529.132 -1670.88 832554 36988.4 
9e-06 37.7016 -30.4423 -2.11303e-09 128168 130586 128117 612.192 85307.9 939664 63017.3 
9.08e-06 36.3797 -31.4979 -7.05589e-09 128167 130668 128118 634.131 97554.5 1.037e+06 39282.1 
9.16e-06 35.4341 -32.1266 7.48952e-10 128493 131089 128432 582.019 31816.6 1.0874e+06 -11275.7 
9.24e-06 34.3564 -33.2958 -5.20477e-09 128214 130666 128241 488.693 61910 1.1791e+06 39514.3 
9.32e-06 32.9373 -33.8299 -1.98716e-09 128163 131022 128192 782.79 -31648.7 1.05537e+06 -44804.6 
9.4e-06 30.4801 -35.408 -3.45796e-09 127819 130583 127750 735.115 -26829.8 1.22481e+06 -50872.1 
9.48e-06 28.6595 -35.8831 -1.34893e-08 128148 130847 127916 766.278 59529.4 1.17073e+06 15766.1 
9.56e-06 26.7835 -37.4193 -9.0118e-09 129308 131688 128874 678.272 -15407.7 1.23895e+06 39889.5 
9.64e-06 24.0939 -38.4056 -1.8536e-08 128852 131602 128641 857.816 42153.3 1.36463e+06 53664.5 
9.72e-06 23.2319 -40.9687 -1.45929e-08 129097 132253 129395 658.11 67597.9 1.46107e+06 73772.4 
9.8e-06 19.8431 -42.6679 -1.7091e-08 129311 132402 129435 665.244 33446.2 1.57009e+06 24604.1 
9.88e-06 17.3221 -43.6694 -3.40801e-08 129297 132936 129627 977.636 147530 1.62524e+06 92298.2 
9.96e-06 15.4635 -63.0222 3.10048e-08 133133 134800 133086 71.5483 132241 2.54908e+06 199209 
