ITEM: TIMESTEP
1000000
ITEM: NUMBER OF CELLS
125
ITEM: BOX BOUNDS pp ss pp
0 0.0001
0 1e-05
0 0.0001
ITEM: CELLS yc f_vel[1] f_vel[2] f_vel[3] f_mom[1] f_mom[2] f_mom[3] f_mom[4] f_q[1] f_q[2] f_q[3] 
4e-08 1.11201 -5.22428 -9.08898e-09 101023 99410.3 100618 -163.833 -19788.5 661921 35929.1 
1.2e-07 1.76807 -0.13574 7.90959e-09 100809 101138 100887 -105.497 64919.1 88063.8 15109.6 
2e-07 2.39107 0.619399 -4.40697e-09 100044 101278 100022 -144.011 6515.47 -32749.1 -3785.84 
2.8e-07 2.20935 0.485066 -1.48435e-09 99618.9 101114 99703.5 -149.05 53860.5 -17313.3 -47861.6 
3.6e-07 2.30745 -0.164793 -1.58114e-08 99865.1 101116 99808 -3.73973 24682.7 30341.9 -12333.5 
4.4e-07 2.30465 0.107387 9.16056e-09 99814.5 101160 99898.4 -19.1685 7742.1 -27810.4 -61052.9 
5.2e-07 2.3422 0.108143 9.14118e-09 99505.4 100938 99317.8 -44.852 39823.6 34600.7 -57700.1 
6e-07 3.12366 -0.00417683 -4.00241e-09 99718.9 101008 99779.3 -101.718 -78842.2 19595.3 -69398.5 
6.8e-07 2.77328 -0.171793 -3.82511e-09 99556 100967 99698.3 -7.44906 -35273.1 -532.004 40410.1 
7.6e-07 2.45118 0.0201327 -1.68675e-08 99893.3 100963 99616.6 18.3623 -20551.3 -14710.2 -577.949 
8.4e-07 2.05995 -0.209333 -6.92666e-09 99546.8 100867 99434.9 -109.659 -49234.7 45078.9 -39543.6 
9.2e-07 3.00058 0.0750585 1.79302e-09 100063 100986 99974.8 -5.67133 37941.8 -26325.2 33086.9 
1e-06 3.5162 0.31124 -2.4829e-09 99798.6 100901 99663.8 -86.6436 -36479.4 14353.9 39524.9 
1.08e-06 3.70608 0.415636 5.57882e-10 99180.4 101031 99405.5 -17.7186 -4836.35 -28446.6 3043.3 
1.16e-06 2.89593 -0.340101 -6.2113e-09 99399.4 100940 99620.8 1.59483 86157.9 11734 31294 
1.24e-06 3.52743 0.0961115 -6.42055e-09 99616.6 100988 99656.9 -103.886 8166.65 -5013.97 8060.33 
1.32e-06 2.38788 -0.0834696 -7.4312e-09 99787.4 100800 99845.9 -117.323 30677.3 16477.5 6375.11 
1.4e-06 3.40647 -0.23742 1.25311e-08 100106 101120 100134 -131.18 7107.73 5204.16 -324.303 
1.48e-06 3.69953 0.927102 2.78793e-09 99824.7 101003 99898.6 -228.166 -40359.2 -40004.1 -13064.4 
1.56e-06 2.82577 -0.188101 3.11048e-09 99295 100972 99313 -23.306 97845.2 -23701.2 -3226.59 
1.64e-06 3.92595 -0.31432 8.11266e-09 99808.3 100987 100024 -8.20551 -4521.41 36201.4 -44234.8 
1.72e-06 4.37676 0.146537 8.1531e-09 99579.9 100802 99327.9 -40.5376 16787.2 4889.03 -19744.1 
1.8e-06 5.13376 0.14696 -2.1622e-09 99488.5 100993 99594.7 -73.1894 -38478 -48055.9 -17937.8 
1.88e-06 5.49422 0.298072 -9.66487e-09 99409.5 100815 99127 -0.943332 46646.6 -11071.6 -36654.2 
1.96e-06 5.02694 -0.130767 -1.1477e-09 99516.1 100818 99341.1 -170.963 52829.8 -2773.86 -59869.1 
2.04e-06 5.93358 -0.15453 -1.48952e-08 99775.4 101114 99783.4 -148.886 73789.8 61749.2 -46267.4 
2.12e-06 5.7361 -0.398212 -5.02289e-09 99823.7 100896 99646.6 12.2118 -10085 35457.7 -93201.5 
2.2e-06 6.6878 -0.106559 2.36507e-09 99918.2 101126 99724 -107.67 -34617.9 -4485.82 -10198 
2.28e-06 5.95697 -0.412176 -1.69208e-08 99398.1 100748 99781.4 168.108 20031.5 62772.1 58983.7 
2.36e-06 5.89729 -0.143524 1.46586e-08 99662.5 100942 99508.7 -154.176 -73407.4 -31230.8 -14235.1 
2.44e-06 6.8318 -0.336559 -2.35695e-09 99532.3 100943 99892.5 -86.5019 54885.6 39913.6 -1008.63 
2.52e-06 7.44012 0.303879 -1.24968e-08 99428.8 100937 99718.8 46.5391 -29556 468.038 -43258.9 
2.6e-06 7.44027 -0.198901 -3.47911e-09 99595.8 100885 99686.9 20.9592 -33037.3 24138.6 -47221.3 
2.68e-06 7.79416 0.300162 3.55687e-09 99503.5 100952 99747.2 -72.0793 59068.4 -46199.5 16463.5 
2.76e-06 7.73497 -0.185354 -5.39024e-09 99919.4 100793 99808 87.9152 20612.3 53368.7 -61796.6 
2.84e-06 7.93396 0.380839 -3.78029e-09 99442.3 100844 99532.7 -45.532 70731.1 -8316.88 32787.7 
2.92e-06 8.11402 -0.196663 -1.83865e-08 99624.2 100886 99622.4 -24.5833 -40546.4 2472.11 -18623.2 
3e-06 8.67933 -0.397882 -1.43088e-08 100136 101043 99998.9 -85.8205 -46446.3 8168.85 -8732.69 
3.08e-06 8.06135 -0.118693 -5.39614e-09 99967.8 101035 99549.3 -28.1745 862.44 6534.19 6667.44 
3.16e-06 7.62468 0.0115156 -1.42024e-08 99784.2 100870 99807.4 105.058 35806.9 25229.6 -42720.5 
3.24e-06 7.27294 0.326233 -3.83589e-09 99222.3 100758 99193.3 -82.7146 27562.4 -23294.1 -57744.8 
3.32e-06 6.91903 -0.469682 -1.1209e-08 99204.2 100844 99562.2 40.6723 38216.3 39620.3 -7898.87 
3.4e-06 6.90622 -0.134719 -7.40658e-09 99920.4 101002 100175 187.219 -57508.4 29778.6 9375.05 
3.48e-06 6.9479 0.182306 1.23737e-08 99801.9 100869 99868.4 -26.2709 -42909.1 -11269.4 -12054.8 
3.56e-06 7.37456 0.135532 -1.39584e-08 99538.8 100783 99624.8 8.05536 -4673.69 2045.76 -37179.2 
3.64e-06 7.31743 0.308137 -1.20837e-08 99341.7 100838 99286.4 -73.9721 42667.1 -1998.77 42290.9 
3.72e-06 7.46373 -0.176116 1.1247e-09 99721.5 100818 99816.7 -94.9921 -44902.8 -13494.9 -33254.4 
3.8e-06 8.18884 0.568924 -3.78045e-09 99985 100955 100077 -53.2871 -23997.6 -53964 -33965 
3.88e-06 8.41328 0.268515 -5.0995e-09 99509.6 100867 99625.4 -130.304 -66951.7 -26566.4 -13921.9 
3.96e-06 8.53208 0.280255 -1.27419e-08 99672 100846 99670.6 1.40123 -14028.2 -9035.63 75775.5 
4.04e-06 8.70635 0.0292389 -5.02865e-09 99441.8 100851 99609.5 -9.76271 15251.9 -19551.1 8102.19 
4.12e-06 9.08467 0.0727709 -4.19535e-09 99241.1 100889 99386.1 44.8088 39993.1 15001.1 -20598 
4.2e-06 9.07946 0.0804068 -1.40908e-08 99464.9 100606 99473.5 50.2247 -15140.8 5231.44 -1146.51 
4.28e-06 10.3125 0.488343 2.30016e-09 99635.8 100807 99177.6 -28.6532 -44911.7 -52005.5 -37405.7 
4.36e-06 9.64684 0.230537 -1.74402e-08 99139.8 100682 99267.5 14.2345 41560.6 -46814.2 -8977.35 
4.44e-06 9.42612 0.440387 1.09552e-08 99706.1 100831 99895.3 -147.359 41536.6 -45589.6 21214.9 
4.52e-06 10.0808 0.0112729 1.57348e-08 99517.8 100871 99457.1 -171.614 -10355.6 -8882.62 -4420.55 
4.6e-06 10.3935 0.00061625 -1.03327e-08 99698.4 100671 99832.4 -103.99 -38845.6 560.215 29235.5 
4.68e-06 9.79894 0.238463 -9.96199e-09 99512.7 100769 99463 -66.8511 25144.6 -48587.1 -33458.2 
4.76e-06 9.90536 -0.000810939 -1.11352e-08 99819.6 101072 99889.4 48.2002 -48295.5 17187.7 -14686.3 
4.84e-06 8.22236 -0.311074 -4.74847e-09 99995.9 100934 99836.3 138.847 43559.8 55304.3 -26010.2 
4.92e-06 8.41732 0.0297533 -2.1257e-08 99777.6 100861 99711.6 117.943 -68494.7 13468.5 345.393 
5e-06 7.60082 0.274584 -1.6053e-08 99845.3 101031 99963.6 24.0133 21646.6 -42314.3 -26663.4 
5.08e-06 7.6125 0.398261 -8.82421e-09 99491 100809 99516.3 -55.9527 -25883.3 -40270.5 49988.5 
5.16e-06 7.74157 -0.145916 -3.71547e-09 99257.7 100721 99179.8 -98.981 -568.248 5908.27 7917.89 
5.24e-06 7.71945 -0.539876 -1.29647e-08 99419.9 100748 99306.1 67.4788 -40798 41937.3 6645.85 
5.32e-06 8.06401 -0.456099 -5.42065e-09 99714.9 100744 99446.8 28.0925 -35744.1 44609.7 -10568.3 
5.4e-06 8.00121 0.321041 -1.32503e-08 99545.7 100818 99798.1 3.6857 14006.6 -22829.9 41142.7 
5.48e-06 7.96124 0.106573 -1.45096e-08 99367.3 100729 99476.1 -25.6039 38674.6 -61140.3 66806.6 
5.56e-06 7.34383 0.390863 2.94357e-10 99839.2 100989 100192 -107.084 79141.4 -31356.4 -93702.3 
5.64e-06 7.73227 0.0678361 -1.85899e-08 99893.7 100947 99770.4 67.368 -24848.7 -6493.69 -27236.5 
5.72e-06 7.97278 0.0248192 -1.68888e-09 99355.9 100823 99434.8 68.0379 -37486.9 -35189.4 57472.4 
5.8e-06 9.23008 0.110746 -6.9088e-09 99662.7 100843 99689.8 -58.0488 -80212.5 -58473.8 19859.3 
5.88e-06 9.04065 0.271089 -9.77774e-09 99875.4 100734 99857.9 63.3678 -29251.4 -28498.6 60847.8 
5.96e-06 8.71695 0.0771381 -3.83998e-09 99415 100861 99387 -25.0991 -19027 33898.2 38047.1 
6.04e-06 8.24712 -0.275365 -2.49719e-08 99479.3 100708 99486.9 7.19996 37469.6 24372.9 -46642.3 
6.12e-06 8.29969 0.333614 2.76102e-09 99759.1 100914 99768.4 -75.1821 46626 -8929.83 -28995.8 
6.2e-06 8.41047 0.594666 -1.12746e-08 99178.3 100820 99410 -22.3893 52570.2 -6240.76 -79692.7 
6.28e-06 8.51766 -0.00907443 -8.12977e-09 99715.7 100779 99503.7 39.7474 -4937.46 6613.18 41984 
6.36e-06 8.36336 0.558514 -2.0993e-08 99607.7 100875 99927.1 33.0752 -26007.7 -61575.7 -54057.2 
6.44e-06 7.89464 0.0251141 -2.74704e-09 99418.8 100850 99387.9 -17.2904 122901 8769.76 8772.13 
6.52e-06 9.57253 -0.0274319 5.27826e-09 99094.4 100672 99185.1 -93.7039 12488.7 -21546.3 27103.5 
6.6e-06 8.99977 0.0295623 -1.78054e-08 99413.5 100652 99310.7 85.5445 8162.59 -24301.5 -81102.5 
6.68e-06 9.71699 -0.226598 -1.5477e-08 99500.1 100821 99472.8 -58.1092 17064.5 -17198.2 -39309 
6.76e-06 9.50643 -0.323926 -1.04999e-08 99793.4 100861 99738.7 -84.7566 84139.1 96982 28270.8 
6.84e-06 10.5697 -0.137193 -1.5884e-09 99935.2 101114 99872 -122.73 20943.3 29744.8 48771.3 
6.92e-06 10.171 -0.314364 -2.6042e-09 99954.3 101053 99786.8 -56.4784 41853.7 18889.2 -87133.7 
7e-06 11.4483 0.0838603 1.85466e-09 99877.8 100959 99979.6 98.2621 -10147.9 26661.2 -97756.4 
7.08e-06 10.7034 0.146671 -1.72793e-08 99675.3 100753 99674.9 -7.58906 -79693.5 -2934.58 -43287.9 
7.16e-06 10.125 0.115565 -1.34288e-08 99529.5 100891 99662 -118.175 14034.8 5745.56 43590 
7.24e-06 10.228 -0.326513 -7.99173e-09 99624 100826 99699.7 -30.0476 -58281.4 26068.5 -1923.33 
7.32e-06 10.496 0.202213 -4.11596e-09 99739.5 101016 99803.2 -76.0908 -12276.8 -8569.69 -81571.2 
7.4e-06 10.1624 0.326823 -9.9859e-09 99385.4 100850 99403.2 -18.1437 -86711.1 -41377.5 52560.7 
7.48e-06 9.98837 -0.0439554 -1.12765e-08 99450.7 100828 99660.2 48.4158 68742.6 8344.17 52584.9 
7.56e-06 10.4511 -0.27695 -4.67761e-09 99434.4 100771 99370.8 -26.9043 -57572.7 13556 79658.8 
7.64e-06 10.2523 -0.319489 -3.45366e-09 99036 100523 99234.6 -43.2971 -36303 9511.21 -22748.8 
7.72e-06 10.3094 -0.323576 -9.24992e-09 99422 100860 99337 46.9133 -5529.63 3822.5 -3670.23 
7.8e-06 10.7986 0.467906 -4.57988e-09 100013 100924 99928.4 -109.033 -75036 -32885.8 88145.2 
7.88e-06 10.9007 0.292957 -7.43007e-09 99627.7 100871 99590.1 -20.2697 -46475.7 -27572.5 -9725.38 
7.96e-06 11.064 0.219721 -4.45591e-09 100005 100908 99999.7 45.5251 -82981.9 16142 -4401.42 
8.04e-06 11.3578 0.172729 -1.40427e-08 99759.5 100910 99694.2 -120.181 -27012.8 12860 17152.9 
8.12e-06 11.6767 0.0177397 -2.69089e-08 99879.4 100982 99934 30.1241 -121480 40727.6 -5868.36 
8.2e-06 10.8047 0.0195329 -4.73283e-10 99718.7 100788 99461.5 61.9033 -12350.5 -20257.4 22384.7 
8.28e-06 11.1155 0.398921 -1.16976e-08 99650.9 100791 99743.6 -28.3378 -16164.9 -43252 -47328.4 
8.36e-06 10.1386 0.0271679 -1.57178e-08 99498.2 100836 99158.3 71.0818 48572.6 43204.7 -30357.2 
8.44e-06 11.7422 0.267605 1.1862e-08 99361.9 100779 99210.4 -46.8513 50642.7 -12853.3 -10741.8 
8.52e-06 11.9302 0.0227143 7.93278e-09 99607.9 100861 99680 -121.501 -55934.4 -8670.34 -22512.3 
8.6e-06 12.298 0.0323961 -6.47879e-09 99312.3 100815 99460.9 -134.505 -100519 -47642.2 -367.172 
8.68e-06 13.0516 -0.125229 -1.36726e-08 100035 101045 99678.1 -59.4947 -25820.4 -11333.2 -9731.92 
8.76e-06 11.9969 -0.11164 2.1682e-09 99474 100916 99643.9 -22.8468 93627.8 22023.6 51047.3 
8.84e-06 12.6622 -0.112127 1.12557e-08 99768.7 100960 100170 -249.607 42400 -10897.9 29195 
8.92e-06 14.5777 0.585295 8.33828e-09 99798.2 100972 99666.2 -51.7567 7210.69 -31504.2 7692.06 
9e-06 15.9069 0.135496 1.01946e-08 99528.9 100803 99707.8 -296.405 -52060.4 2484.08 -64790.6 
9.08e-06 15.2979 -0.258578 1.19298e-08 99615.5 100945 99662.3 -134.349 -44564.3 21103.9 -74119.3 
9.16e-06 15.655 -0.236799 -7.27815e-09 99913.4 101135 99969 -173.833 16279.4 33173.4 60807.3 
9.24e-06 17.4187 -0.142416 -3.47458e-09 99366.2 100961 99673.7 -94.2531 -8489.28 13633.3 36390 
9.32e-06 16.3015 -0.377093 -4.66975e-09 100073 101063 100013 71.5595 -59005.9 25432.9 45252.1 
9.4e-06 17.0197 -0.284242 3.62942e-09 99644.5 100956 99976 -134.536 12667.5 31984.8 44364.4 
9.48e-06 17.1966 -0.0623451 -8.27306e-09 99630.9 101169 99833.3 19.3942 13089.5 619.049 -56728 
9.56e-06 16.631 -0.488525 -4.8162e-09 99647.5 101191 100027 -228.787 93936.1 64107.9 59048 
9.64e-06 17.2983 -0.512075 -7.01262e-09 99983.6 101216 100142 -90.5743 112731 6836.9 -4407.62 
9.72e-06 17.5907 -0.376502 -1.38258e-10 99897.5 101230 99955.5 -117.054 -32634 8566.32 -26320.5 
9.8e-06 18.2921 -0.713929 -3.13504e-09 100043 101267 99993.9 -245.843 -3185.89 47826.1 -116538 
9.88e-06 18.4387 -0.467266 -1.09374e-09 100661 100979 100428 -96.6126 -2745.08 -11916.2 -9726.42 
9.96e-06 19.111 5.17697 4.67061e-09 101018 99404.1 100987 -203.62 -51502.5 -670004 162272 
