ITEM: TIMESTEP
3000
ITEM: NUMBER OF CELLS
1
ITEM: BOX BOUNDS pp pp pp
0 0.0001
0 4e-05
0 0.0001
ITEM: CELLS f_1[1] f_1[2] 
247.258 100213 
