ITEM: TIMESTEP
100000
ITEM: NUMBER OF CELLS
625
ITEM: BOX BOUNDS pp pp pp
-0.0001005 0.0001005
-0.0001005 0.0001005
-0.0001005 0.0001005
ITEM: CELLS xc yc f_1[1] f_1[2] f_1[3] f_1[4] 
-9.648e-05 -9.648e-05 0 0 0 0 
-8.844e-05 -9.648e-05 0 0 0 0 
-8.04e-05 -9.648e-05 0 0 0 0 
-7.236e-05 -9.648e-05 0 0 0 0 
-6.432e-05 -9.648e-05 0 0 0 0 
-5.628e-05 -9.648e-05 0 0 0 0 
-4.824e-05 -9.648e-05 0 0 0 0 
-4.02e-05 -9.648e-05 2.9136 1.10342e+23 461.412 -179.284 
-3.216e-05 -9.648e-05 167.497 8.90714e+22 462.573 -156.266 
-2.412e-05 -9.648e-05 246.608 1.21663e+23 457.962 -103.814 
-1.608e-05 -9.648e-05 229.706 8.19912e+22 469.167 -86.2077 
-8.04e-06 -9.648e-05 234.679 9.05616e+22 464.865 -52.171 
-9.648e-05 -8.844e-05 0 0 0 0 
-8.844e-05 -8.844e-05 0 0 0 0 
-8.04e-05 -8.844e-05 0 0 0 0 
-7.236e-05 -8.844e-05 0 0 0 0 
-6.432e-05 -8.844e-05 0 0 0 0 
-5.628e-05 -8.844e-05 3.48755 1.14002e+23 420.212 -260.576 
-4.824e-05 -8.844e-05 222.481 9.4342e+22 423.829 -236.517 
-4.02e-05 -8.844e-05 250.174 1.27516e+23 432.438 -174.912 
-3.216e-05 -8.844e-05 227.043 6.64658e+22 432.447 -169.616 
-2.412e-05 -8.844e-05 228.75 6.10986e+22 425.774 -133.941 
-1.608e-05 -8.844e-05 224.786 4.90571e+22 429.584 -100.561 
-8.04e-06 -8.844e-05 224.668 4.43786e+22 429.507 -63.5021 
-9.648e-05 -8.04e-05 0 0 0 0 
-8.844e-05 -8.04e-05 0 0 0 0 
-8.04e-05 -8.04e-05 0 0 0 0 
-7.236e-05 -8.04e-05 0 0 0 0 
-6.432e-05 -8.04e-05 54.0978 1.24535e+23 396.127 -297.07 
-5.628e-05 -8.04e-05 237.576 9.99807e+22 400.866 -260.44 
-4.824e-05 -8.04e-05 228.903 6.58347e+22 387.286 -247.625 
-4.02e-05 -8.04e-05 225.116 4.71447e+22 385.983 -214.62 
-3.216e-05 -8.04e-05 223.322 3.51343e+22 386.266 -175.169 
-2.412e-05 -8.04e-05 222.071 2.68809e+22 387.718 -135.524 
-1.608e-05 -8.04e-05 221.832 2.19873e+22 387.231 -95.3368 
-8.04e-06 -8.04e-05 221.391 1.92738e+22 387.114 -55.1727 
-9.648e-05 -7.236e-05 0 0 0 0 
-8.844e-05 -7.236e-05 0 0 0 0 
-8.04e-05 -7.236e-05 0 0 0 0 
-7.236e-05 -7.236e-05 104.069 1.15665e+23 352.818 -341.05 
-6.432e-05 -7.236e-05 245.543 1.12868e+23 365.255 -292.63 
-5.628e-05 -7.236e-05 225.172 5.24625e+22 348.477 -284.898 
-4.824e-05 -7.236e-05 224.219 3.69259e+22 349.901 -245.902 
-4.02e-05 -7.236e-05 221.868 2.45238e+22 350.301 -204.631 
-3.216e-05 -7.236e-05 221.21 1.74852e+22 349.121 -162.489 
-2.412e-05 -7.236e-05 221.242 1.32516e+22 346.983 -121.728 
-1.608e-05 -7.236e-05 220.428 1.08136e+22 344.682 -82.9865 
-8.04e-06 -7.236e-05 219.452 9.50576e+21 342.57 -44.4207 
-9.648e-05 -6.432e-05 0 0 0 0 
-8.844e-05 -6.432e-05 0 0 0 0 
-8.04e-05 -6.432e-05 46.3597 1.20856e+23 314.805 -379.74 
-7.236e-05 -6.432e-05 238.212 9.7462e+22 324.724 -342.408 
-6.432e-05 -6.432e-05 225.583 5.11955e+22 311.911 -318.082 
-5.628e-05 -6.432e-05 222.815 3.10347e+22 313.704 -276.592 
-4.824e-05 -6.432e-05 221.174 1.91508e+22 311.374 -233.445 
-4.02e-05 -6.432e-05 220.835 1.25686e+22 308.254 -191.527 
-3.216e-05 -6.432e-05 218.495 8.82985e+21 303.418 -150.587 
-2.412e-05 -6.432e-05 212.045 6.75075e+21 299.109 -111.952 
-1.608e-05 -6.432e-05 203.29 5.57731e+21 293.627 -74.8295 
-8.04e-06 -6.432e-05 195.793 4.97188e+21 291.129 -39.496 
-9.648e-05 -5.628e-05 0 0 0 0 
-8.844e-05 -5.628e-05 12.9512 1.43516e+23 254.585 -410.806 
-8.04e-05 -5.628e-05 252.648 1.57607e+23 305.185 -363.948 
-7.236e-05 -5.628e-05 224.991 4.97634e+22 282.707 -342.278 
-6.432e-05 -5.628e-05 222.352 2.89693e+22 269.281 -310.331 
-5.628e-05 -5.628e-05 221.115 1.67589e+22 268.4 -267.633 
-4.824e-05 -5.628e-05 220.154 1.04379e+22 264.934 -222.86 
-4.02e-05 -5.628e-05 213.21 6.92332e+21 259.611 -179.971 
-3.216e-05 -5.628e-05 194.688 4.97097e+21 253.36 -140.265 
-2.412e-05 -5.628e-05 175.949 3.88834e+21 245.323 -103.256 
-1.608e-05 -5.628e-05 160.038 3.26047e+21 239.332 -69.915 
-8.04e-06 -5.628e-05 151.594 2.93304e+21 235.558 -37.1252 
-9.648e-05 -4.824e-05 0 0 0 0 
-8.844e-05 -4.824e-05 216.294 1.1592e+23 247.664 -418.275 
-8.04e-05 -4.824e-05 234.516 6.63643e+22 238.655 -380.36 
-7.236e-05 -4.824e-05 222.268 3.03368e+22 219.543 -355.826 
-6.432e-05 -4.824e-05 221.045 1.74029e+22 224.524 -310.019 
-5.628e-05 -4.824e-05 220.156 1.00487e+22 222.552 -263.437 
-4.824e-05 -4.824e-05 208.92 6.19317e+21 216.576 -218.472 
-4.02e-05 -4.824e-05 181.868 4.20921e+21 208.079 -174.338 
-3.216e-05 -4.824e-05 156.553 3.09407e+21 199.041 -133.121 
-2.412e-05 -4.824e-05 137.649 2.47169e+21 188.584 -96.5029 
-1.608e-05 -4.824e-05 126.018 2.10473e+21 182.167 -63.2674 
-8.04e-06 -4.824e-05 119.737 1.90075e+21 180.784 -33.402 
-9.648e-05 -4.02e-05 19.6521 1.62442e+23 175.783 -445.406 
-8.844e-05 -4.02e-05 253.297 1.52039e+23 234.828 -404.329 
-8.04e-05 -4.02e-05 223.072 3.88182e+22 184.37 -383.089 
-7.236e-05 -4.02e-05 221.553 2.11659e+22 181.063 -349.338 
-6.432e-05 -4.02e-05 220.578 1.15128e+22 179.8 -305.535 
-5.628e-05 -4.02e-05 212.566 6.62348e+21 176.402 -257.341 
-4.824e-05 -4.02e-05 181.113 4.12989e+21 169.069 -211.857 
-4.02e-05 -4.02e-05 149.684 2.8449e+21 158.388 -167.629 
-3.216e-05 -4.02e-05 126.909 2.12631e+21 148.039 -124.884 
-2.412e-05 -4.02e-05 112.372 1.73156e+21 138.394 -89.972 
-1.608e-05 -4.02e-05 103.521 1.50267e+21 131.233 -57.692 
-8.04e-06 -4.02e-05 98.2916 1.39588e+21 128.121 -32.2878 
-9.648e-05 -3.216e-05 232.993 1.22152e+23 151.222 -453.792 
-8.844e-05 -3.216e-05 235.052 7.14082e+22 143.275 -426.478 
-8.04e-05 -3.216e-05 222.016 2.82972e+22 131.429 -396.5 
-7.236e-05 -3.216e-05 221.08 1.52918e+22 139.922 -350.976 
-6.432e-05 -3.216e-05 218.332 8.28105e+21 139.564 -302.542 
-5.628e-05 -3.216e-05 192.369 4.76718e+21 134.794 -252.401 
-4.824e-05 -3.216e-05 155.143 3.0434e+21 126.17 -204.616 
-4.02e-05 -3.216e-05 126.841 2.11746e+21 113.373 -157.067 
-3.216e-05 -3.216e-05 108.972 1.64362e+21 99.1037 -113.083 
-2.412e-05 -3.216e-05 96.4947 1.34999e+21 90.3566 -81.342 
-1.608e-05 -3.216e-05 89.4396 1.18985e+21 87.1322 -53.7025 
-8.04e-06 -3.216e-05 85.977 1.11135e+21 85.1329 -29.8018 
-9.648e-05 -2.412e-05 234.136 1.05396e+23 107.944 -458.839 
-8.844e-05 -2.412e-05 226.465 5.20183e+22 94.8678 -429.913 
-8.04e-05 -2.412e-05 221.707 2.36101e+22 98.4488 -392.486 
-7.236e-05 -2.412e-05 220.902 1.20814e+22 102.694 -346.962 
-6.432e-05 -2.412e-05 211.562 6.46552e+21 101.057 -298.772 
-5.628e-05 -2.412e-05 174.054 3.76962e+21 94.9408 -246.152 
-4.824e-05 -2.412e-05 136.904 2.44068e+21 85.7389 -193.503 
-4.02e-05 -2.412e-05 111.975 1.68203e+21 77.2298 -148.948 
-3.216e-05 -2.412e-05 96.085 1.3374e+21 68.1709 -107.284 
-2.412e-05 -2.412e-05 86.6459 1.14642e+21 62.5043 -74.0817 
-1.608e-05 -2.412e-05 80.869 1.01394e+21 57.6867 -48.4562 
-8.04e-06 -2.412e-05 77.2254 9.60323e+20 56.3603 -27.6696 
-9.648e-05 -1.608e-05 232.078 9.27143e+22 63.2907 -464.392 
-8.844e-05 -1.608e-05 224.345 4.34003e+22 50.1719 -432.337 
-8.04e-05 -1.608e-05 221.279 2.02559e+22 60.4894 -391.866 
-7.236e-05 -1.608e-05 219.751 1.01842e+22 65.8698 -344.839 
-6.432e-05 -1.608e-05 202.554 5.45459e+21 65.5473 -294.098 
-5.628e-05 -1.608e-05 159.519 3.18239e+21 59.6384 -240.623 
-4.824e-05 -1.608e-05 125.568 2.08613e+21 50.2744 -186.002 
-4.02e-05 -1.608e-05 102.71 1.51221e+21 45.6759 -138.452 
-3.216e-05 -1.608e-05 89.3808 1.21124e+21 38.9902 -97.4802 
-2.412e-05 -1.608e-05 80.5191 1.02885e+21 34.5887 -66.9968 
-1.608e-05 -1.608e-05 75.2117 9.36022e+20 31.605 -42.1049 
-8.04e-06 -1.608e-05 72.4463 8.71685e+20 30.563 -24.81 
-9.648e-05 -8.04e-06 233.15 8.96758e+22 21.4971 -465.577 
-8.844e-05 -8.04e-06 224.019 4.06745e+22 9.7754 -431.917 
-8.04e-05 -8.04e-06 221.26 1.85849e+22 23.5905 -390.12 
-7.236e-05 -8.04e-06 219.033 9.22116e+21 29.4248 -343.889 
-6.432e-05 -8.04e-06 195.733 4.90944e+21 30.0764 -292.014 
-5.628e-05 -8.04e-06 151.623 2.88643e+21 26.8271 -236.101 
-4.824e-05 -8.04e-06 118.711 1.9074e+21 21.9839 -180.317 
-4.02e-05 -8.04e-06 98.6165 1.41033e+21 17.9921 -133.327 
-3.216e-05 -8.04e-06 85.5293 1.12925e+21 15.85 -89.7862 
-2.412e-05 -8.04e-06 77.3621 9.7255e+20 14.2016 -60.9461 
-1.608e-05 -8.04e-06 71.8495 8.93799e+20 13.9388 -37.1973 
-8.04e-06 -8.04e-06 70.143 8.28286e+20 13.3984 -19.4938 
-9.648e-05 -6.77626e-21 230.226 8.23289e+22 -17.36 -469.332 
-8.844e-05 -6.77626e-21 223.571 4.0583e+22 -27.7895 -432.405 
-8.04e-05 -6.77626e-21 221.4 1.83392e+22 -14.5016 -388.037 
-7.236e-05 -6.77626e-21 219.188 9.01246e+21 -7.21484 -342.531 
-6.432e-05 -6.77626e-21 193.292 4.74652e+21 -4.34036 -290.061 
-5.628e-05 -6.77626e-21 149.355 2.83928e+21 -5.09652 -231.74 
-4.824e-05 -6.77626e-21 116.986 1.86029e+21 -5.5896 -176.836 
-4.02e-05 -6.77626e-21 96.9093 1.36091e+21 -6.20373 -131.189 
-3.216e-05 -6.77626e-21 84.087 1.12125e+21 -6.3064 -85.9412 
-2.412e-05 -6.77626e-21 76.2994 9.41169e+20 -6.52396 -58.6916 
-1.608e-05 -6.77626e-21 71.418 8.60624e+20 -4.30377 -33.4181 
-8.04e-06 -6.77626e-21 68.623 8.35625e+20 -2.8988 -16.4376 
-9.648e-05 8.04e-06 234.833 9.0735e+22 -51.367 -465.043 
-8.844e-05 8.04e-06 224.846 4.43165e+22 -62.6278 -430.006 
-8.04e-05 8.04e-06 221.489 1.93037e+22 -54.722 -387.132 
-7.236e-05 8.04e-06 218.732 9.46219e+21 -44.4451 -343.497 
-6.432e-05 8.04e-06 195.596 4.94394e+21 -39.8209 -290.607 
-5.628e-05 8.04e-06 151.779 2.97601e+21 -36.0286 -233.607 
-4.824e-05 8.04e-06 118.359 1.89131e+21 -32.0628 -178.914 
-4.02e-05 8.04e-06 98.3434 1.39598e+21 -29.5714 -129.944 
-3.216e-05 8.04e-06 85.1986 1.13542e+21 -26.4609 -86.8288 
-2.412e-05 8.04e-06 77.1298 9.6016e+20 -24.814 -56.709 
-1.608e-05 8.04e-06 71.7477 8.96385e+20 -23.1411 -30.0531 
-8.04e-06 8.04e-06 69.4419 8.603e+20 -17.5782 -15.2189 
-6.77626e-21 8.04e-06 68.3598 8.38763e+20 -15.9859 2.28758 
-9.648e-05 1.608e-05 229.819 8.18213e+22 -85.8882 -468.957 
-8.844e-05 1.608e-05 225.041 4.91141e+22 -99.8454 -429.957 
-8.04e-05 1.608e-05 221.625 2.19732e+22 -95.3433 -387.73 
-7.236e-05 1.608e-05 220.523 1.07553e+22 -82.4527 -345.242 
-6.432e-05 1.608e-05 202.538 5.55633e+21 -75.2685 -294.033 
-5.628e-05 1.608e-05 159.659 3.2844e+21 -67.8949 -236.975 
-4.824e-05 1.608e-05 123.951 2.09595e+21 -63.1296 -182.789 
-4.02e-05 1.608e-05 102.687 1.51782e+21 -57.1583 -132.992 
-3.216e-05 1.608e-05 88.3172 1.1688e+21 -51.1467 -90.6352 
-2.412e-05 1.608e-05 80.3405 1.00302e+21 -45.6597 -56.9211 
-1.608e-05 1.608e-05 75.1312 9.29009e+20 -40.23 -31.3142 
-8.04e-06 1.608e-05 72.362 8.70344e+20 -36.7032 -13.2223 
-6.77626e-21 1.608e-05 71.4032 8.72365e+20 -32.4517 5.55129 
-9.648e-05 2.412e-05 246.825 1.22573e+23 -103.411 -458.125 
-8.844e-05 2.412e-05 229.157 6.1192e+22 -133.133 -425.55 
-8.04e-05 2.412e-05 222.3 2.68871e+22 -135.29 -387.869 
-7.236e-05 2.412e-05 221.043 1.32136e+22 -121.96 -348.051 
-6.432e-05 2.412e-05 211.033 6.70114e+21 -110.863 -299.23 
-5.628e-05 2.412e-05 173.504 3.84705e+21 -101.998 -246.818 
-4.824e-05 2.412e-05 135.427 2.4315e+21 -95.1367 -189.601 
-4.02e-05 2.412e-05 111.199 1.72129e+21 -87.7098 -139.24 
-3.216e-05 2.412e-05 95.0241 1.3386e+21 -79.1565 -95.1147 
-2.412e-05 2.412e-05 86.3177 1.12315e+21 -72.7049 -62.2171 
-1.608e-05 2.412e-05 80.1744 1.01453e+21 -63.5028 -32.7355 
-8.04e-06 2.412e-05 77.5507 9.42411e+20 -61.3736 -11.9747 
-6.77626e-21 2.412e-05 76.1894 9.50843e+20 -58.0544 6.36822 
-9.648e-05 3.216e-05 169.276 8.96328e+22 -155.933 -462.233 
-8.844e-05 3.216e-05 226.992 6.63929e+22 -169.033 -432.193 
-8.04e-05 3.216e-05 223.187 3.52311e+22 -174.739 -386.059 
-7.236e-05 3.216e-05 221.29 1.74507e+22 -162.394 -349.818 
-6.432e-05 3.216e-05 218.841 8.77858e+21 -150.395 -303.807 
-5.628e-05 3.216e-05 193.454 4.96837e+21 -138.531 -252.348 
-4.824e-05 3.216e-05 154.341 3.04662e+21 -132.903 -199.047 
-4.02e-05 3.216e-05 124.674 2.13416e+21 -121.515 -147.903 
-3.216e-05 3.216e-05 106.176 1.59719e+21 -114.039 -104.54 
-2.412e-05 3.216e-05 94.6673 1.341e+21 -102.986 -67.8458 
-1.608e-05 3.216e-05 88.4843 1.18787e+21 -95.6586 -38.5878 
-8.04e-06 3.216e-05 84.7428 1.09941e+21 -91.4647 -13.0286 
-6.77626e-21 3.216e-05 83.4468 1.093e+21 -84.6107 6.93001 
-9.648e-05 4.02e-05 2.96835 1.11567e+23 -178.755 -463.119 
-8.844e-05 4.02e-05 249.65 1.26782e+23 -175.596 -433.057 
-8.04e-05 4.02e-05 225.194 4.72419e+22 -214.48 -385.54 
-7.236e-05 4.02e-05 221.689 2.45951e+22 -204.639 -351.78 
-6.432e-05 4.02e-05 220.573 1.24617e+22 -191.259 -307.857 
-5.628e-05 4.02e-05 212.32 6.93858e+21 -179.417 -259.398 
-4.824e-05 4.02e-05 180.62 4.17385e+21 -173.551 -205.847 
-4.02e-05 4.02e-05 148.742 2.86745e+21 -164.891 -157.307 
-3.216e-05 4.02e-05 125.353 2.11926e+21 -156.643 -113.787 
-2.412e-05 4.02e-05 110.756 1.71056e+21 -148.294 -77.2503 
-1.608e-05 4.02e-05 102.326 1.47664e+21 -138.88 -44.8281 
-8.04e-06 4.02e-05 98.3924 1.36837e+21 -130.756 -16.8358 
-6.77626e-21 4.02e-05 96.5409 1.33612e+21 -127.789 6.38275 
-9.648e-05 4.824e-05 0 0 0 0 
-8.844e-05 4.824e-05 221.944 9.42671e+22 -236.434 -424.116 
-8.04e-05 4.824e-05 229.06 6.58456e+22 -247.871 -387.601 
-7.236e-05 4.824e-05 224.009 3.70168e+22 -245.313 -350.598 
-6.432e-05 4.824e-05 221.302 1.90238e+22 -233.882 -311.51 
-5.628e-05 4.824e-05 219.85 1.04131e+22 -222.885 -264.651 
-4.824e-05 4.824e-05 208.46 6.1713e+21 -217.87 -216.621 
-4.02e-05 4.824e-05 179.21 4.14509e+21 -208.982 -168.917 
-3.216e-05 4.824e-05 153.517 3.02289e+21 -200.93 -124.703 
-2.412e-05 4.824e-05 135.11 2.36851e+21 -196.385 -86.4364 
-1.608e-05 4.824e-05 124.224 2.0528e+21 -188.912 -54.5069 
-8.04e-06 4.824e-05 118.505 1.89494e+21 -179.652 -21.4215 
-6.77626e-21 4.824e-05 117.167 1.84084e+21 -178.548 7.84616 
-9.648e-05 5.628e-05 0 0 0 0 
-8.844e-05 5.628e-05 3.4624 1.13831e+23 -260.355 -420.98 
-8.04e-05 5.628e-05 237.829 1.00008e+23 -260.571 -400.665 
-7.236e-05 5.628e-05 224.997 5.26756e+22 -284.348 -348.456 
-6.432e-05 5.628e-05 222.773 3.09083e+22 -276.94 -313.092 
-5.628e-05 5.628e-05 221.139 1.6804e+22 -267.673 -266.828 
-4.824e-05 5.628e-05 219.948 1.01151e+22 -262.769 -221.047 
-4.02e-05 5.628e-05 211.493 6.64838e+21 -257.754 -175.515 
-3.216e-05 5.628e-05 191.312 4.78323e+21 -253.894 -134.739 
-2.412e-05 5.628e-05 172.436 3.74734e+21 -245.927 -94.5698 
-1.608e-05 5.628e-05 158.095 3.17072e+21 -239.683 -58.9877 
-8.04e-06 5.628e-05 150.555 2.91414e+21 -235.392 -25.4483 
-6.77626e-21 5.628e-05 149.078 2.81998e+21 -234.601 6.52999 
-9.648e-05 6.432e-05 0 0 0 0 
-8.844e-05 6.432e-05 0 0 0 0 
-8.04e-05 6.432e-05 54.0747 1.24692e+23 -298.009 -396.514 
-7.236e-05 6.432e-05 245.676 1.1317e+23 -292.443 -365.582 
-6.432e-05 6.432e-05 225.563 5.10996e+22 -318.685 -311.987 
-5.628e-05 6.432e-05 222.816 2.87965e+22 -310.15 -269.507 
-4.824e-05 6.432e-05 221.474 1.73477e+22 -309.405 -223.756 
-4.02e-05 6.432e-05 220.742 1.15363e+22 -304.271 -179.288 
-3.216e-05 6.432e-05 218.784 8.33296e+21 -303.162 -138.396 
-2.412e-05 6.432e-05 211.792 6.49963e+21 -299.561 -102.062 
-1.608e-05 6.432e-05 202.315 5.4761e+21 -293.911 -64.7073 
-8.04e-06 6.432e-05 196.16 4.93729e+21 -290.58 -28.2591 
-6.77626e-21 6.432e-05 193.774 4.78996e+21 -289.513 5.35439 
-9.648e-05 7.236e-05 0 0 0 0 
-8.844e-05 7.236e-05 0 0 0 0 
-8.04e-05 7.236e-05 0 0 0 0 
-7.236e-05 7.236e-05 103.938 1.15976e+23 -341.345 -353.582 
-6.432e-05 7.236e-05 238.355 9.77725e+22 -342.371 -324.66 
-5.628e-05 7.236e-05 225.204 4.98521e+22 -342.593 -282.305 
-4.824e-05 7.236e-05 222.233 3.02953e+22 -356.237 -219.29 
-4.02e-05 7.236e-05 221.495 2.11452e+22 -349.14 -180.848 
-3.216e-05 7.236e-05 221.222 1.52635e+22 -350.483 -139.186 
-2.412e-05 7.236e-05 220.61 1.20549e+22 -346.937 -102.318 
-1.608e-05 7.236e-05 220.104 1.02105e+22 -344.662 -65.3711 
-8.04e-06 7.236e-05 219.405 9.24537e+21 -344.076 -29.6145 
-6.77626e-21 7.236e-05 218.608 9.01329e+21 -343.898 7.2898 
-9.648e-05 8.04e-05 0 0 0 0 
-8.844e-05 8.04e-05 0 0 0 0 
-8.04e-05 8.04e-05 0 0 0 0 
-7.236e-05 8.04e-05 0 0 0 0 
-6.432e-05 8.04e-05 46.5382 1.2052e+23 -380.158 -315.089 
-5.628e-05 8.04e-05 252.892 1.57458e+23 -364.283 -305.001 
-4.824e-05 8.04e-05 234.363 6.66546e+22 -380.077 -238.589 
-4.02e-05 8.04e-05 222.937 3.87904e+22 -382.475 -184.345 
-3.216e-05 8.04e-05 221.726 2.83133e+22 -396.002 -131.459 
-2.412e-05 8.04e-05 221.823 2.36625e+22 -392.104 -98.1692 
-1.608e-05 8.04e-05 221.465 2.02665e+22 -391.025 -60.5421 
-8.04e-06 8.04e-05 221.681 1.85743e+22 -389.636 -22.7082 
-6.77626e-21 8.04e-05 221.541 1.82491e+22 -389.214 15.2437 
-9.648e-05 8.844e-05 0 0 0 0 
-8.844e-05 8.844e-05 0 0 0 0 
-8.04e-05 8.844e-05 0 0 0 0 
-7.236e-05 8.844e-05 0 0 0 0 
-6.432e-05 8.844e-05 0 0 0 0 
-5.628e-05 8.844e-05 12.8131 1.42031e+23 -412.703 -255.93 
-4.824e-05 8.844e-05 215.712 1.15606e+23 -419.038 -248.356 
-4.02e-05 8.844e-05 253.477 1.51761e+23 -404.073 -234.736 
-3.216e-05 8.844e-05 235.143 7.15302e+22 -425.982 -143.914 
-2.412e-05 8.844e-05 226.742 5.1847e+22 -429.355 -95.2355 
-1.608e-05 8.844e-05 224.214 4.32101e+22 -432.061 -50.0885 
-8.04e-06 8.844e-05 223.832 4.0508e+22 -431.309 -9.6274 
-6.77626e-21 8.844e-05 223.512 4.04712e+22 -432.281 28.3976 
-9.648e-05 9.648e-05 0 0 0 0 
-8.844e-05 9.648e-05 0 0 0 0 
-8.04e-05 9.648e-05 0 0 0 0 
-7.236e-05 9.648e-05 0 0 0 0 
-6.432e-05 9.648e-05 0 0 0 0 
-5.628e-05 9.648e-05 0 0 0 0 
-4.824e-05 9.648e-05 0 0 0 0 
-4.02e-05 9.648e-05 19.5214 1.62408e+23 -446.726 -175.917 
-3.216e-05 9.648e-05 233.331 1.22338e+23 -453.445 -151.485 
-2.412e-05 9.648e-05 233.865 1.05408e+23 -458.684 -107.875 
-1.608e-05 9.648e-05 231.844 9.31124e+22 -464.097 -63.5442 
-8.04e-06 9.648e-05 232.778 8.97951e+22 -465.312 -21.6495 
-6.77626e-21 9.648e-05 230.435 8.25567e+22 -468.813 17.4675 
-6.77626e-21 -6.77626e-21 67.1412 8.11703e+20 1.16951 -1.97801 
8.04e-06 -6.77626e-21 67.8638 8.181e+20 2.79885 15.2333 
1.608e-05 -6.77626e-21 70.8657 8.72024e+20 5.07518 33.6875 
2.412e-05 -6.77626e-21 75.327 9.45766e+20 7.63201 55.8464 
3.216e-05 -6.77626e-21 82.6668 1.1022e+21 7.97488 84.8258 
4.02e-05 -6.77626e-21 96.7969 1.36223e+21 6.29076 130.47 
4.824e-05 -6.77626e-21 115.734 1.81267e+21 6.42406 180.354 
5.628e-05 -6.77626e-21 146.457 2.79517e+21 4.2776 232.099 
6.432e-05 -6.77626e-21 191.95 4.74505e+21 4.55149 289.545 
7.236e-05 -6.77626e-21 218.829 8.97766e+21 7.63378 341.022 
8.04e-05 -6.77626e-21 221.489 1.82481e+22 15.3506 387.406 
8.844e-05 -6.77626e-21 223.889 4.0578e+22 28.8442 431.722 
9.648e-05 -6.77626e-21 230.469 8.25005e+22 17.2391 469.363 
8.04e-06 8.04e-06 68.3072 8.35989e+20 -14.0787 16.0644 
1.608e-05 8.04e-06 71.5253 8.6414e+20 -9.35937 37.3978 
2.412e-05 8.04e-06 76.5085 9.24422e+20 -10.7958 61.1486 
3.216e-05 8.04e-06 85.3716 1.11098e+21 -14.1011 91.8203 
4.02e-05 8.04e-06 98.1821 1.40739e+21 -19.4623 133.989 
4.824e-05 8.04e-06 118.717 1.87751e+21 -22.3273 181.286 
5.628e-05 8.04e-06 149.14 2.87559e+21 -28.2085 235.189 
6.432e-05 8.04e-06 194.466 4.89055e+21 -30.4178 289.806 
7.236e-05 8.04e-06 219.169 9.18401e+21 -28.7833 342.3 
8.04e-05 8.04e-06 221.383 1.85241e+22 -22.5814 389.34 
8.844e-05 8.04e-06 223.849 4.07568e+22 -9.80701 430.927 
9.648e-05 8.04e-06 232.758 8.97565e+22 -21.3515 465.81 
8.04e-06 1.608e-05 72.2418 8.80441e+20 -34.0695 20.4371 
1.608e-05 1.608e-05 74.5265 9.17517e+20 -34.5692 39.9297 
2.412e-05 1.608e-05 79.9368 1.01824e+21 -34.4783 64.0318 
3.216e-05 1.608e-05 89.0379 1.20738e+21 -39.0674 98.8166 
4.02e-05 1.608e-05 103.295 1.51306e+21 -44.9462 139.482 
4.824e-05 1.608e-05 124.598 2.05586e+21 -53.089 187.523 
5.628e-05 1.608e-05 157.706 3.14187e+21 -59.6755 240.739 
6.432e-05 1.608e-05 201.682 5.42066e+21 -65.9926 293.72 
7.236e-05 1.608e-05 220.255 1.00614e+22 -65.5085 345.054 
8.04e-05 1.608e-05 221.385 2.01354e+22 -60.6051 390.844 
8.844e-05 1.608e-05 223.977 4.33243e+22 -49.5961 431.543 
9.648e-05 1.608e-05 231.99 9.31245e+22 -63.4551 464.207 
8.04e-06 2.412e-05 76.9617 9.49662e+20 -55.564 24.8285 
1.608e-05 2.412e-05 80.0366 9.89926e+20 -56.6446 47.1391 
2.412e-05 2.412e-05 86.26 1.12268e+21 -61.751 72.8724 
3.216e-05 2.412e-05 96.0202 1.3267e+21 -68.3818 108.59 
4.02e-05 2.412e-05 111.122 1.71192e+21 -76.4915 148.228 
4.824e-05 2.412e-05 136.372 2.41551e+21 -86.4081 194.26 
5.628e-05 2.412e-05 172.642 3.73909e+21 -95.2329 246.247 
6.432e-05 2.412e-05 212.141 6.41291e+21 -101.024 297.794 
7.236e-05 2.412e-05 220.26 1.19836e+22 -103.037 346.769 
8.04e-05 2.412e-05 221.826 2.34581e+22 -98.7078 391.544 
8.844e-05 2.412e-05 226.549 5.21576e+22 -95.1385 429.297 
9.648e-05 2.412e-05 233.925 1.05765e+23 -107.852 458.72 
8.04e-06 3.216e-05 84.5525 1.09077e+21 -86.7812 27.2758 
1.608e-05 3.216e-05 88.2327 1.18888e+21 -90.2494 50.9419 
2.412e-05 3.216e-05 95.5263 1.33614e+21 -94.7578 81.1862 
3.216e-05 3.216e-05 107.475 1.60273e+21 -104.485 116.938 
4.02e-05 3.216e-05 126.482 2.13165e+21 -112.798 156.496 
4.824e-05 3.216e-05 153.985 3.00901e+21 -125.399 204.449 
5.628e-05 3.216e-05 191.879 4.7106e+21 -133.897 253.649 
6.432e-05 3.216e-05 218.816 8.20377e+21 -138.758 302.16 
7.236e-05 3.216e-05 221.25 1.52354e+22 -140.022 350.012 
8.04e-05 3.216e-05 222.345 2.82447e+22 -131.782 395.364 
8.844e-05 3.216e-05 235.238 7.15891e+22 -143.155 426.151 
9.648e-05 3.216e-05 232.94 1.22541e+23 -150.873 453.539 
8.04e-06 4.02e-05 97.064 1.3737e+21 -127.715 33.1423 
1.608e-05 4.02e-05 102.102 1.4646e+21 -132.435 59.5064 
2.412e-05 4.02e-05 111.793 1.69354e+21 -140.739 90.1871 
3.216e-05 4.02e-05 126.937 2.11107e+21 -148.607 125.944 
4.02e-05 4.02e-05 147.918 2.82844e+21 -159.534 167.892 
4.824e-05 4.02e-05 180.13 4.11328e+21 -168.041 208.507 
5.628e-05 4.02e-05 212.446 6.62379e+21 -176.366 256.51 
6.432e-05 4.02e-05 220.915 1.14489e+22 -180.134 304.899 
7.236e-05 4.02e-05 221.585 2.10983e+22 -181.899 349.581 
8.04e-05 4.02e-05 223.109 3.86818e+22 -184.675 382.23 
8.844e-05 4.02e-05 253.373 1.51833e+23 -234.794 404.69 
9.648e-05 4.02e-05 19.6108 1.62165e+23 -176.062 445.918 
8.04e-06 4.824e-05 118.287 1.89851e+21 -179.948 34.3998 
1.608e-05 4.824e-05 125.369 2.11303e+21 -182.678 64.2596 
2.412e-05 4.824e-05 136.267 2.4463e+21 -189.322 96.0564 
3.216e-05 4.824e-05 155.038 3.06387e+21 -199.484 134.806 
4.02e-05 4.824e-05 180.302 4.13734e+21 -208.621 174.482 
4.824e-05 4.824e-05 208.817 6.14382e+21 -216.277 217.744 
5.628e-05 4.824e-05 220.456 9.99888e+21 -221.392 263.732 
6.432e-05 4.824e-05 221.265 1.72963e+22 -224.693 310.058 
7.236e-05 4.824e-05 222.155 3.015e+22 -219.652 355.689 
8.04e-05 4.824e-05 234.803 6.63992e+22 -239.332 379.915 
8.844e-05 4.824e-05 215.859 1.16261e+23 -247.846 419.149 
9.648e-05 4.824e-05 0 0 0 0 
8.04e-06 5.628e-05 150.897 2.90083e+21 -236.502 37.1345 
1.608e-05 5.628e-05 159.658 3.24207e+21 -239.459 69.7735 
2.412e-05 5.628e-05 173.601 3.85605e+21 -245.57 102.251 
3.216e-05 5.628e-05 193.262 4.94783e+21 -252.194 140.328 
4.02e-05 5.628e-05 212.384 6.9075e+21 -259.71 180.046 
4.824e-05 5.628e-05 220.08 1.0381e+22 -265.328 222.534 
5.628e-05 5.628e-05 221.3 1.67761e+22 -267.427 267.278 
6.432e-05 5.628e-05 222.531 2.87848e+22 -269.806 309.742 
7.236e-05 5.628e-05 224.715 4.96908e+22 -282.359 342.234 
8.04e-05 5.628e-05 252.56 1.57953e+23 -305.283 363.684 
8.844e-05 5.628e-05 12.9046 1.42954e+23 -255.616 412.015 
9.648e-05 5.628e-05 0 0 0 0 
8.04e-06 6.432e-05 196.703 4.98476e+21 -290.278 39.4657 
1.608e-05 6.432e-05 203.551 5.56581e+21 -293.927 74.9587 
2.412e-05 6.432e-05 211.519 6.71818e+21 -299.396 112.04 
3.216e-05 6.432e-05 218.193 8.80695e+21 -304.397 151.109 
4.02e-05 6.432e-05 220.937 1.24465e+22 -308.67 191.022 
4.824e-05 6.432e-05 221.402 1.91198e+22 -310.963 233.135 
5.628e-05 6.432e-05 222.912 3.11812e+22 -312.46 275.802 
6.432e-05 6.432e-05 225.657 5.09698e+22 -312.229 317.79 
7.236e-05 6.432e-05 238.075 9.75753e+22 -324.939 342.259 
8.04e-05 6.432e-05 46.3761 1.2103e+23 -315.197 379.784 
8.844e-05 6.432e-05 0 0 0 0 
9.648e-05 6.432e-05 0 0 0 0 
8.04e-06 7.236e-05 219.716 9.49361e+21 -344.987 44.8128 
1.608e-05 7.236e-05 220.39 1.07329e+22 -346.854 82.6819 
2.412e-05 7.236e-05 221.145 1.3177e+22 -349.042 122.455 
3.216e-05 7.236e-05 221.303 1.74362e+22 -349.582 162.629 
4.02e-05 7.236e-05 222.003 2.46462e+22 -351.476 204.035 
4.824e-05 7.236e-05 223.884 3.697e+22 -350.088 244.725 
5.628e-05 7.236e-05 225.267 5.26926e+22 -348.691 284.342 
6.432e-05 7.236e-05 245.597 1.13531e+23 -366.137 292.361 
7.236e-05 7.236e-05 104.465 1.16289e+23 -353.396 341.341 
8.04e-05 7.236e-05 0 0 0 0 
8.844e-05 7.236e-05 0 0 0 0 
9.648e-05 7.236e-05 0 0 0 0 
8.04e-06 8.04e-05 221.224 1.93272e+22 -387.982 54.5933 
1.608e-05 8.04e-05 221.279 2.20636e+22 -387.888 95.4042 
2.412e-05 8.04e-05 222.182 2.70354e+22 -387.633 135.198 
3.216e-05 8.04e-05 223.207 3.5229e+22 -386.737 175.056 
4.02e-05 8.04e-05 225.183 4.69449e+22 -385.96 214.665 
4.824e-05 8.04e-05 229.012 6.56636e+22 -387.605 248.017 
5.628e-05 8.04e-05 237.722 1.00094e+23 -401.179 260.759 
6.432e-05 8.04e-05 53.9365 1.24446e+23 -396.389 298.125 
7.236e-05 8.04e-05 0 0 0 0 
8.04e-05 8.04e-05 0 0 0 0 
8.844e-05 8.04e-05 0 0 0 0 
9.648e-05 8.04e-05 0 0 0 0 
8.04e-06 8.844e-05 224.979 4.43374e+22 -429.486 62.9505 
1.608e-05 8.844e-05 224.909 4.89317e+22 -429.744 99.9212 
2.412e-05 8.844e-05 228.92 6.10806e+22 -425.504 133.012 
3.216e-05 8.844e-05 226.844 6.65117e+22 -432.078 168.832 
4.02e-05 8.844e-05 249.755 1.27245e+23 -432.493 174.63 
4.824e-05 8.844e-05 222.489 9.47642e+22 -424.179 236.317 
5.628e-05 8.844e-05 3.4795 1.14669e+23 -420.9 261.166 
6.432e-05 8.844e-05 0 0 0 0 
7.236e-05 8.844e-05 0 0 0 0 
8.04e-05 8.844e-05 0 0 0 0 
8.844e-05 8.844e-05 0 0 0 0 
9.648e-05 8.844e-05 0 0 0 0 
8.04e-06 9.648e-05 234.737 9.08509e+22 -464.502 51.9594 
1.608e-05 9.648e-05 229.903 8.18487e+22 -468.898 86.294 
2.412e-05 9.648e-05 246.635 1.21798e+23 -457.892 104.104 
3.216e-05 9.648e-05 167.644 8.93477e+22 -461.703 155.895 
4.02e-05 9.648e-05 2.93275 1.10462e+23 -461.554 179.35 
4.824e-05 9.648e-05 0 0 0 0 
5.628e-05 9.648e-05 0 0 0 0 
6.432e-05 9.648e-05 0 0 0 0 
7.236e-05 9.648e-05 0 0 0 0 
8.04e-05 9.648e-05 0 0 0 0 
8.844e-05 9.648e-05 0 0 0 0 
9.648e-05 9.648e-05 0 0 0 0 
-6.77626e-21 -9.648e-05 230.3 8.26089e+22 468.94 -17.4271 
8.04e-06 -9.648e-05 232.992 8.97664e+22 465.38 21.9968 
1.608e-05 -9.648e-05 232.259 9.33446e+22 463.981 63.9417 
2.412e-05 -9.648e-05 234.052 1.05595e+23 458.844 108.18 
3.216e-05 -9.648e-05 233.231 1.22406e+23 453.66 151.135 
4.02e-05 -9.648e-05 19.6359 1.63256e+23 446.735 175.53 
4.824e-05 -9.648e-05 0 0 0 0 
5.628e-05 -9.648e-05 0 0 0 0 
6.432e-05 -9.648e-05 0 0 0 0 
7.236e-05 -9.648e-05 0 0 0 0 
8.04e-05 -9.648e-05 0 0 0 0 
8.844e-05 -9.648e-05 0 0 0 0 
9.648e-05 -9.648e-05 0 0 0 0 
-6.77626e-21 -8.844e-05 223.611 4.05769e+22 431.557 -28.558 
8.04e-06 -8.844e-05 223.578 4.05949e+22 431.387 9.4582 
1.608e-05 -8.844e-05 224.229 4.33661e+22 431.847 49.9094 
2.412e-05 -8.844e-05 226.436 5.20752e+22 429.776 95.3981 
3.216e-05 -8.844e-05 235.191 7.16004e+22 426.306 143.715 
4.02e-05 -8.844e-05 253.487 1.52595e+23 403.913 234.537 
4.824e-05 -8.844e-05 215.785 1.15617e+23 419.3 247.812 
5.628e-05 -8.844e-05 12.962 1.43242e+23 413.255 255.607 
6.432e-05 -8.844e-05 0 0 0 0 
7.236e-05 -8.844e-05 0 0 0 0 
8.04e-05 -8.844e-05 0 0 0 0 
8.844e-05 -8.844e-05 0 0 0 0 
9.648e-05 -8.844e-05 0 0 0 0 
-6.77626e-21 -8.04e-05 221.541 1.82155e+22 388.587 -14.7613 
8.04e-06 -8.04e-05 221.505 1.84562e+22 390.698 23.6597 
1.608e-05 -8.04e-05 221.344 2.01425e+22 391.079 60.1479 
2.412e-05 -8.04e-05 221.3 2.3506e+22 391.747 98.1273 
3.216e-05 -8.04e-05 222.145 2.82984e+22 395.02 131.552 
4.02e-05 -8.04e-05 223.159 3.89218e+22 381.982 184.164 
4.824e-05 -8.04e-05 234.292 6.66519e+22 380.326 238.503 
5.628e-05 -8.04e-05 252.751 1.57591e+23 363.797 305.216 
6.432e-05 -8.04e-05 47.422 1.21878e+23 380.012 314.72 
7.236e-05 -8.04e-05 0 0 0 0 
8.04e-05 -8.04e-05 0 0 0 0 
8.844e-05 -8.04e-05 0 0 0 0 
9.648e-05 -8.04e-05 0 0 0 0 
-6.77626e-21 -7.236e-05 218.83 8.99358e+21 341.973 -8.17625 
8.04e-06 -7.236e-05 219.546 9.20289e+21 342.868 28.9691 
1.608e-05 -7.236e-05 219.732 1.00975e+22 344.661 65.8441 
2.412e-05 -7.236e-05 220.45 1.201e+22 347.048 102.512 
3.216e-05 -7.236e-05 221.262 1.52083e+22 350.871 139.651 
4.02e-05 -7.236e-05 221.567 2.10397e+22 349.44 181.275 
4.824e-05 -7.236e-05 222.224 3.00734e+22 355.686 219.481 
5.628e-05 -7.236e-05 225.121 4.9569e+22 341.913 282.399 
6.432e-05 -7.236e-05 238.59 9.84696e+22 341.787 325.12 
7.236e-05 -7.236e-05 104.529 1.16756e+23 340.523 354.453 
8.04e-05 -7.236e-05 0 0 0 0 
8.844e-05 -7.236e-05 0 0 0 0 
9.648e-05 -7.236e-05 0 0 0 0 
-6.77626e-21 -6.432e-05 193.079 4.80069e+21 290.399 -4.61474 
8.04e-06 -6.432e-05 195.273 4.91164e+21 291.82 30.3528 
1.608e-05 -6.432e-05 202.284 5.44504e+21 294.703 65.3301 
2.412e-05 -6.432e-05 211.911 6.4097e+21 299.66 101.615 
3.216e-05 -6.432e-05 218.768 8.23407e+21 303.688 139.667 
4.02e-05 -6.432e-05 220.889 1.14633e+22 304.861 180.142 
4.824e-05 -6.432e-05 221.479 1.73095e+22 309.909 224.528 
5.628e-05 -6.432e-05 222.763 2.87438e+22 310.154 269.687 
6.432e-05 -6.432e-05 225.609 5.09335e+22 317.587 311.71 
7.236e-05 -6.432e-05 245.548 1.13431e+23 292.034 365.919 
8.04e-05 -6.432e-05 53.6891 1.24321e+23 297.638 397.148 
8.844e-05 -6.432e-05 0 0 0 0 
9.648e-05 -6.432e-05 0 0 0 0 
-6.77626e-21 -5.628e-05 148.939 2.85263e+21 232.669 -4.50091 
8.04e-06 -5.628e-05 151.07 2.9308e+21 235.739 26.9618 
1.608e-05 -5.628e-05 159.977 3.19977e+21 241.348 60.5416 
2.412e-05 -5.628e-05 173.752 3.74361e+21 247.926 95.3806 
3.216e-05 -5.628e-05 191.671 4.78153e+21 253.474 133.399 
4.02e-05 -5.628e-05 212.669 6.61644e+21 257.934 175.941 
4.824e-05 -5.628e-05 219.776 1.00183e+22 264.531 221.346 
5.628e-05 -5.628e-05 220.859 1.67444e+22 268.292 267.645 
6.432e-05 -5.628e-05 222.73 3.11575e+22 276.1 313.032 
7.236e-05 -5.628e-05 224.917 5.26848e+22 283.851 348.046 
8.04e-05 -5.628e-05 237.41 9.95295e+22 261.192 401.193 
8.844e-05 -5.628e-05 3.4882 1.14389e+23 260.414 422.139 
9.648e-05 -5.628e-05 0 0 0 0 
-6.77626e-21 -4.824e-05 116.942 1.8638e+21 179.114 -5.77111 
8.04e-06 -4.824e-05 119.029 1.9e+21 182.362 22.8887 
1.608e-05 -4.824e-05 125.95 2.0904e+21 187.563 52.2684 
2.412e-05 -4.824e-05 137.552 2.45136e+21 196.357 86.7095 
3.216e-05 -4.824e-05 155.632 2.98588e+21 207.584 124.8 
4.02e-05 -4.824e-05 181.357 4.15198e+21 211.545 169.395 
4.824e-05 -4.824e-05 209.15 6.19337e+21 218.773 215.588 
5.628e-05 -4.824e-05 219.921 1.03438e+22 223.465 265.547 