ITEM: TIMESTEP
0
ITEM: NUMBER OF CELLS
625
ITEM: BOX BOUNDS pp pp pp
-0.0001005 0.0001005
-0.0001005 0.0001005
-0.0001005 0.0001005
ITEM: CELLS xc yc f_2[*] 
-9.648e-05 -9.648e-05 0 
-8.844e-05 -9.648e-05 0 
-8.04e-05 -9.648e-05 0 
-7.236e-05 -9.648e-05 0 
-6.432e-05 -9.648e-05 0 
-5.628e-05 -9.648e-05 0 
-4.824e-05 -9.648e-05 0 
-4.02e-05 -9.648e-05 0 
-3.216e-05 -9.648e-05 0 
-2.412e-05 -9.648e-05 0 
-1.608e-05 -9.648e-05 0 
-8.04e-06 -9.648e-05 0 
-6.77626e-21 -9.648e-05 0 
8.04e-06 -9.648e-05 0 
1.608e-05 -9.648e-05 0 
2.412e-05 -9.648e-05 0 
3.216e-05 -9.648e-05 0 
4.02e-05 -9.648e-05 0 
4.824e-05 -9.648e-05 0 
5.628e-05 -9.648e-05 0 
6.432e-05 -9.648e-05 0 
7.236e-05 -9.648e-05 0 
8.04e-05 -9.648e-05 0 
8.844e-05 -9.648e-05 0 
9.648e-05 -9.648e-05 0 
-9.648e-05 -8.844e-05 0 
-8.844e-05 -8.844e-05 0 
-8.04e-05 -8.844e-05 0 
-7.236e-05 -8.844e-05 0 
-6.432e-05 -8.844e-05 0 
-5.628e-05 -8.844e-05 0 
-4.824e-05 -8.844e-05 0 
-4.02e-05 -8.844e-05 0 
-3.216e-05 -8.844e-05 0 
-2.412e-05 -8.844e-05 0 
-1.608e-05 -8.844e-05 0 
-8.04e-06 -8.844e-05 0 
-6.77626e-21 -8.844e-05 0 
8.04e-06 -8.844e-05 0 
1.608e-05 -8.844e-05 0 
2.412e-05 -8.844e-05 0 
3.216e-05 -8.844e-05 0 
4.02e-05 -8.844e-05 0 
4.824e-05 -8.844e-05 0 
5.628e-05 -8.844e-05 0 
6.432e-05 -8.844e-05 0 
7.236e-05 -8.844e-05 0 
8.04e-05 -8.844e-05 0 
8.844e-05 -8.844e-05 0 
9.648e-05 -8.844e-05 0 
-9.648e-05 -8.04e-05 0 
-8.844e-05 -8.04e-05 0 
-8.04e-05 -8.04e-05 0 
-7.236e-05 -8.04e-05 0 
-6.432e-05 -8.04e-05 0 
-5.628e-05 -8.04e-05 0 
-4.824e-05 -8.04e-05 0 
-4.02e-05 -8.04e-05 0 
-3.216e-05 -8.04e-05 0 
-2.412e-05 -8.04e-05 0 
-1.608e-05 -8.04e-05 0 
-8.04e-06 -8.04e-05 0 
-6.77626e-21 -8.04e-05 0 
8.04e-06 -8.04e-05 0 
1.608e-05 -8.04e-05 0 
2.412e-05 -8.04e-05 0 
3.216e-05 -8.04e-05 0 
4.02e-05 -8.04e-05 0 
4.824e-05 -8.04e-05 0 
5.628e-05 -8.04e-05 0 
6.432e-05 -8.04e-05 0 
7.236e-05 -8.04e-05 0 
8.04e-05 -8.04e-05 0 
8.844e-05 -8.04e-05 0 
9.648e-05 -8.04e-05 0 
-9.648e-05 -7.236e-05 0 
-8.844e-05 -7.236e-05 0 
-8.04e-05 -7.236e-05 0 
-7.236e-05 -7.236e-05 0 
-6.432e-05 -7.236e-05 0 
-5.628e-05 -7.236e-05 0 
-4.824e-05 -7.236e-05 0 
-4.02e-05 -7.236e-05 0 
-3.216e-05 -7.236e-05 0 
-2.412e-05 -7.236e-05 0 
-1.608e-05 -7.236e-05 0 
-8.04e-06 -7.236e-05 0 
-6.77626e-21 -7.236e-05 0 
8.04e-06 -7.236e-05 0 
1.608e-05 -7.236e-05 0 
2.412e-05 -7.236e-05 0 
3.216e-05 -7.236e-05 0 
4.02e-05 -7.236e-05 0 
4.824e-05 -7.236e-05 0 
5.628e-05 -7.236e-05 0 
6.432e-05 -7.236e-05 0 
7.236e-05 -7.236e-05 0 
8.04e-05 -7.236e-05 0 
8.844e-05 -7.236e-05 0 
9.648e-05 -7.236e-05 0 
-9.648e-05 -6.432e-05 0 
-8.844e-05 -6.432e-05 0 
-8.04e-05 -6.432e-05 0 
-7.236e-05 -6.432e-05 0 
-6.432e-05 -6.432e-05 0 
-5.628e-05 -6.432e-05 0 
-4.824e-05 -6.432e-05 0 
-4.02e-05 -6.432e-05 0 
-3.216e-05 -6.432e-05 0 
-2.412e-05 -6.432e-05 0 
-1.608e-05 -6.432e-05 0 
-8.04e-06 -6.432e-05 0 
-6.77626e-21 -6.432e-05 0 
8.04e-06 -6.432e-05 0 
1.608e-05 -6.432e-05 0 
2.412e-05 -6.432e-05 0 
3.216e-05 -6.432e-05 0 
4.02e-05 -6.432e-05 0 
4.824e-05 -6.432e-05 0 
5.628e-05 -6.432e-05 0 
6.432e-05 -6.432e-05 0 
7.236e-05 -6.432e-05 0 
8.04e-05 -6.432e-05 0 
8.844e-05 -6.432e-05 0 
9.648e-05 -6.432e-05 0 
-9.648e-05 -5.628e-05 0 
-8.844e-05 -5.628e-05 0 
-8.04e-05 -5.628e-05 0 
-7.236e-05 -5.628e-05 0 
-6.432e-05 -5.628e-05 0 
-5.628e-05 -5.628e-05 0 
-4.824e-05 -5.628e-05 0 
-4.02e-05 -5.628e-05 0 
-3.216e-05 -5.628e-05 0 
-2.412e-05 -5.628e-05 0 
-1.608e-05 -5.628e-05 0 
-8.04e-06 -5.628e-05 0 
-6.77626e-21 -5.628e-05 0 
8.04e-06 -5.628e-05 0 
1.608e-05 -5.628e-05 0 
2.412e-05 -5.628e-05 0 
3.216e-05 -5.628e-05 0 
4.02e-05 -5.628e-05 0 
4.824e-05 -5.628e-05 0 
5.628e-05 -5.628e-05 0 
6.432e-05 -5.628e-05 0 
7.236e-05 -5.628e-05 0 
8.04e-05 -5.628e-05 0 
8.844e-05 -5.628e-05 0 
9.648e-05 -5.628e-05 0 
-9.648e-05 -4.824e-05 0 
-8.844e-05 -4.824e-05 0 
-8.04e-05 -4.824e-05 0 
-7.236e-05 -4.824e-05 0 
-6.432e-05 -4.824e-05 0 
-5.628e-05 -4.824e-05 0 
-4.824e-05 -4.824e-05 0 
-4.02e-05 -4.824e-05 0 
-3.216e-05 -4.824e-05 0 
-2.412e-05 -4.824e-05 0 
-1.608e-05 -4.824e-05 0 
-8.04e-06 -4.824e-05 0 
-6.77626e-21 -4.824e-05 0 
8.04e-06 -4.824e-05 0 
1.608e-05 -4.824e-05 0 
2.412e-05 -4.824e-05 0 
3.216e-05 -4.824e-05 0 
4.02e-05 -4.824e-05 0 
4.824e-05 -4.824e-05 0 
5.628e-05 -4.824e-05 0 
6.432e-05 -4.824e-05 0 
7.236e-05 -4.824e-05 0 
8.04e-05 -4.824e-05 0 
8.844e-05 -4.824e-05 0 
9.648e-05 -4.824e-05 0 
-9.648e-05 -4.02e-05 0 
-8.844e-05 -4.02e-05 0 
-8.04e-05 -4.02e-05 0 
-7.236e-05 -4.02e-05 0 
-6.432e-05 -4.02e-05 0 
-5.628e-05 -4.02e-05 0 
-4.824e-05 -4.02e-05 0 
-4.02e-05 -4.02e-05 0 
-3.216e-05 -4.02e-05 0 
-2.412e-05 -4.02e-05 0 
-1.608e-05 -4.02e-05 0 
-8.04e-06 -4.02e-05 0 
-6.77626e-21 -4.02e-05 0 
8.04e-06 -4.02e-05 0 
1.608e-05 -4.02e-05 0 
2.412e-05 -4.02e-05 0 
3.216e-05 -4.02e-05 0 
4.02e-05 -4.02e-05 0 
4.824e-05 -4.02e-05 0 
5.628e-05 -4.02e-05 0 
6.432e-05 -4.02e-05 0 
7.236e-05 -4.02e-05 0 
8.04e-05 -4.02e-05 0 
8.844e-05 -4.02e-05 0 
9.648e-05 -4.02e-05 0 
-9.648e-05 -3.216e-05 0 
-8.844e-05 -3.216e-05 0 
-8.04e-05 -3.216e-05 0 
-7.236e-05 -3.216e-05 0 
-6.432e-05 -3.216e-05 0 
-5.628e-05 -3.216e-05 0 
-4.824e-05 -3.216e-05 0 
-4.02e-05 -3.216e-05 0 
-3.216e-05 -3.216e-05 0 
-2.412e-05 -3.216e-05 0 
-1.608e-05 -3.216e-05 0 
-8.04e-06 -3.216e-05 0 
-6.77626e-21 -3.216e-05 0 
8.04e-06 -3.216e-05 0 
1.608e-05 -3.216e-05 0 
2.412e-05 -3.216e-05 0 
3.216e-05 -3.216e-05 0 
4.02e-05 -3.216e-05 0 
4.824e-05 -3.216e-05 0 
5.628e-05 -3.216e-05 0 
6.432e-05 -3.216e-05 0 
7.236e-05 -3.216e-05 0 
8.04e-05 -3.216e-05 0 
8.844e-05 -3.216e-05 0 
9.648e-05 -3.216e-05 0 
-9.648e-05 -2.412e-05 0 
-8.844e-05 -2.412e-05 0 
-8.04e-05 -2.412e-05 0 
-7.236e-05 -2.412e-05 0 
-6.432e-05 -2.412e-05 0 
-5.628e-05 -2.412e-05 0 
-4.824e-05 -2.412e-05 0 
-4.02e-05 -2.412e-05 0 
-3.216e-05 -2.412e-05 0 
-2.412e-05 -2.412e-05 0 
-1.608e-05 -2.412e-05 0 
-8.04e-06 -2.412e-05 0 
-6.77626e-21 -2.412e-05 0 
8.04e-06 -2.412e-05 0 
1.608e-05 -2.412e-05 0 
2.412e-05 -2.412e-05 0 
3.216e-05 -2.412e-05 0 
4.02e-05 -2.412e-05 0 
4.824e-05 -2.412e-05 0 
5.628e-05 -2.412e-05 0 
6.432e-05 -2.412e-05 0 
7.236e-05 -2.412e-05 0 
8.04e-05 -2.412e-05 0 
8.844e-05 -2.412e-05 0 
9.648e-05 -2.412e-05 0 
-9.648e-05 -1.608e-05 0 
-8.844e-05 -1.608e-05 0 
-8.04e-05 -1.608e-05 0 
-7.236e-05 -1.608e-05 0 
-6.432e-05 -1.608e-05 0 
-5.628e-05 -1.608e-05 0 
-4.824e-05 -1.608e-05 0 
-4.02e-05 -1.608e-05 0 
-3.216e-05 -1.608e-05 0 
-2.412e-05 -1.608e-05 0 
-1.608e-05 -1.608e-05 0 
-8.04e-06 -1.608e-05 0 
-6.77626e-21 -1.608e-05 0 
8.04e-06 -1.608e-05 0 
1.608e-05 -1.608e-05 0 
2.412e-05 -1.608e-05 0 
3.216e-05 -1.608e-05 0 
4.02e-05 -1.608e-05 0 
4.824e-05 -1.608e-05 0 
5.628e-05 -1.608e-05 0 
6.432e-05 -1.608e-05 0 
7.236e-05 -1.608e-05 0 
8.04e-05 -1.608e-05 0 
8.844e-05 -1.608e-05 0 
9.648e-05 -1.608e-05 0 
-9.648e-05 -8.04e-06 0 
-8.844e-05 -8.04e-06 0 
-8.04e-05 -8.04e-06 0 
-7.236e-05 -8.04e-06 0 
-6.432e-05 -8.04e-06 0 
-5.628e-05 -8.04e-06 0 
-4.824e-05 -8.04e-06 0 
-4.02e-05 -8.04e-06 0 
-3.216e-05 -8.04e-06 0 
-2.412e-05 -8.04e-06 0 
-1.608e-05 -8.04e-06 0 
-8.04e-06 -8.04e-06 0 
-6.77626e-21 -8.04e-06 0 
8.04e-06 -8.04e-06 0 
1.608e-05 -8.04e-06 0 
2.412e-05 -8.04e-06 0 
3.216e-05 -8.04e-06 0 
4.02e-05 -8.04e-06 0 
4.824e-05 -8.04e-06 0 
5.628e-05 -8.04e-06 0 
6.432e-05 -8.04e-06 0 
7.236e-05 -8.04e-06 0 
8.04e-05 -8.04e-06 0 
8.844e-05 -8.04e-06 0 
9.648e-05 -8.04e-06 0 
-9.648e-05 -6.77626e-21 0 
-8.844e-05 -6.77626e-21 0 
-8.04e-05 -6.77626e-21 0 
-7.236e-05 -6.77626e-21 0 
-6.432e-05 -6.77626e-21 0 
-5.628e-05 -6.77626e-21 0 
-4.824e-05 -6.77626e-21 0 
-4.02e-05 -6.77626e-21 0 
-3.216e-05 -6.77626e-21 0 
-2.412e-05 -6.77626e-21 0 
-1.608e-05 -6.77626e-21 0 
-8.04e-06 -6.77626e-21 0 
-6.77626e-21 -6.77626e-21 0 
8.04e-06 -6.77626e-21 0 
1.608e-05 -6.77626e-21 0 
2.412e-05 -6.77626e-21 0 
3.216e-05 -6.77626e-21 0 
4.02e-05 -6.77626e-21 0 
4.824e-05 -6.77626e-21 0 
5.628e-05 -6.77626e-21 0 
6.432e-05 -6.77626e-21 0 
7.236e-05 -6.77626e-21 0 
8.04e-05 -6.77626e-21 0 
8.844e-05 -6.77626e-21 0 
9.648e-05 -6.77626e-21 0 
-9.648e-05 8.04e-06 0 
-8.844e-05 8.04e-06 0 
-8.04e-05 8.04e-06 0 
-7.236e-05 8.04e-06 0 
-6.432e-05 8.04e-06 0 
-5.628e-05 8.04e-06 0 
-4.824e-05 8.04e-06 0 
-4.02e-05 8.04e-06 0 
-3.216e-05 8.04e-06 0 
-2.412e-05 8.04e-06 0 
-1.608e-05 8.04e-06 0 
-8.04e-06 8.04e-06 0 
-6.77626e-21 8.04e-06 0 
8.04e-06 8.04e-06 0 
1.608e-05 8.04e-06 0 
2.412e-05 8.04e-06 0 
3.216e-05 8.04e-06 0 
4.02e-05 8.04e-06 0 
4.824e-05 8.04e-06 0 
5.628e-05 8.04e-06 0 
6.432e-05 8.04e-06 0 
7.236e-05 8.04e-06 0 
8.04e-05 8.04e-06 0 
8.844e-05 8.04e-06 0 
9.648e-05 8.04e-06 0 
-9.648e-05 1.608e-05 0 
-8.844e-05 1.608e-05 0 
-8.04e-05 1.608e-05 0 
-7.236e-05 1.608e-05 0 
-6.432e-05 1.608e-05 0 
-5.628e-05 1.608e-05 0 
-4.824e-05 1.608e-05 0 
-4.02e-05 1.608e-05 0 
-3.216e-05 1.608e-05 0 
-2.412e-05 1.608e-05 0 
-1.608e-05 1.608e-05 0 
-8.04e-06 1.608e-05 0 
-6.77626e-21 1.608e-05 0 
8.04e-06 1.608e-05 0 
1.608e-05 1.608e-05 0 
2.412e-05 1.608e-05 0 
3.216e-05 1.608e-05 0 
4.02e-05 1.608e-05 0 
4.824e-05 1.608e-05 0 
5.628e-05 1.608e-05 0 
6.432e-05 1.608e-05 0 
7.236e-05 1.608e-05 0 
8.04e-05 1.608e-05 0 
8.844e-05 1.608e-05 0 
9.648e-05 1.608e-05 0 
-9.648e-05 2.412e-05 0 
-8.844e-05 2.412e-05 0 
-8.04e-05 2.412e-05 0 
-7.236e-05 2.412e-05 0 
-6.432e-05 2.412e-05 0 
-5.628e-05 2.412e-05 0 
-4.824e-05 2.412e-05 0 
-4.02e-05 2.412e-05 0 
-3.216e-05 2.412e-05 0 
-2.412e-05 2.412e-05 0 
-1.608e-05 2.412e-05 0 
-8.04e-06 2.412e-05 0 
-6.77626e-21 2.412e-05 0 
8.04e-06 2.412e-05 0 
1.608e-05 2.412e-05 0 
2.412e-05 2.412e-05 0 
3.216e-05 2.412e-05 0 
4.02e-05 2.412e-05 0 
4.824e-05 2.412e-05 0 
5.628e-05 2.412e-05 0 
6.432e-05 2.412e-05 0 
7.236e-05 2.412e-05 0 
8.04e-05 2.412e-05 0 
8.844e-05 2.412e-05 0 
9.648e-05 2.412e-05 0 
-9.648e-05 3.216e-05 0 
-8.844e-05 3.216e-05 0 
-8.04e-05 3.216e-05 0 
-7.236e-05 3.216e-05 0 
-6.432e-05 3.216e-05 0 
-5.628e-05 3.216e-05 0 
-4.824e-05 3.216e-05 0 
-4.02e-05 3.216e-05 0 
-3.216e-05 3.216e-05 0 
-2.412e-05 3.216e-05 0 
-1.608e-05 3.216e-05 0 
-8.04e-06 3.216e-05 0 
-6.77626e-21 3.216e-05 0 
8.04e-06 3.216e-05 0 
1.608e-05 3.216e-05 0 
2.412e-05 3.216e-05 0 
3.216e-05 3.216e-05 0 
4.02e-05 3.216e-05 0 
4.824e-05 3.216e-05 0 
5.628e-05 3.216e-05 0 
6.432e-05 3.216e-05 0 
7.236e-05 3.216e-05 0 
8.04e-05 3.216e-05 0 
8.844e-05 3.216e-05 0 
9.648e-05 3.216e-05 0 
-9.648e-05 4.02e-05 0 
-8.844e-05 4.02e-05 0 
-8.04e-05 4.02e-05 0 
-7.236e-05 4.02e-05 0 
-6.432e-05 4.02e-05 0 
-5.628e-05 4.02e-05 0 
-4.824e-05 4.02e-05 0 
-4.02e-05 4.02e-05 0 
-3.216e-05 4.02e-05 0 
-2.412e-05 4.02e-05 0 
-1.608e-05 4.02e-05 0 
-8.04e-06 4.02e-05 0 
-6.77626e-21 4.02e-05 0 
8.04e-06 4.02e-05 0 
1.608e-05 4.02e-05 0 
2.412e-05 4.02e-05 0 
3.216e-05 4.02e-05 0 
4.02e-05 4.02e-05 0 
4.824e-05 4.02e-05 0 
5.628e-05 4.02e-05 0 
6.432e-05 4.02e-05 0 
7.236e-05 4.02e-05 0 
8.04e-05 4.02e-05 0 
8.844e-05 4.02e-05 0 
9.648e-05 4.02e-05 0 
-9.648e-05 4.824e-05 0 
-8.844e-05 4.824e-05 0 
-8.04e-05 4.824e-05 0 
-7.236e-05 4.824e-05 0 
-6.432e-05 4.824e-05 0 
-5.628e-05 4.824e-05 0 
-4.824e-05 4.824e-05 0 
-4.02e-05 4.824e-05 0 
-3.216e-05 4.824e-05 0 
-2.412e-05 4.824e-05 0 
-1.608e-05 4.824e-05 0 
-8.04e-06 4.824e-05 0 
-6.77626e-21 4.824e-05 0 
8.04e-06 4.824e-05 0 
1.608e-05 4.824e-05 0 
2.412e-05 4.824e-05 0 
3.216e-05 4.824e-05 0 
4.02e-05 4.824e-05 0 
4.824e-05 4.824e-05 0 
5.628e-05 4.824e-05 0 
6.432e-05 4.824e-05 0 
7.236e-05 4.824e-05 0 
8.04e-05 4.824e-05 0 
8.844e-05 4.824e-05 0 
9.648e-05 4.824e-05 0 
-9.648e-05 5.628e-05 0 
-8.844e-05 5.628e-05 0 
-8.04e-05 5.628e-05 0 
-7.236e-05 5.628e-05 0 
-6.432e-05 5.628e-05 0 
-5.628e-05 5.628e-05 0 
-4.824e-05 5.628e-05 0 
-4.02e-05 5.628e-05 0 
-3.216e-05 5.628e-05 0 
-2.412e-05 5.628e-05 0 
-1.608e-05 5.628e-05 0 
-8.04e-06 5.628e-05 0 
-6.77626e-21 5.628e-05 0 
8.04e-06 5.628e-05 0 
1.608e-05 5.628e-05 0 
2.412e-05 5.628e-05 0 
3.216e-05 5.628e-05 0 
4.02e-05 5.628e-05 0 
4.824e-05 5.628e-05 0 
5.628e-05 5.628e-05 0 
6.432e-05 5.628e-05 0 
7.236e-05 5.628e-05 0 
8.04e-05 5.628e-05 0 
8.844e-05 5.628e-05 0 
9.648e-05 5.628e-05 0 
-9.648e-05 6.432e-05 0 
-8.844e-05 6.432e-05 0 
-8.04e-05 6.432e-05 0 
-7.236e-05 6.432e-05 0 
-6.432e-05 6.432e-05 0 
-5.628e-05 6.432e-05 0 
-4.824e-05 6.432e-05 0 
-4.02e-05 6.432e-05 0 
-3.216e-05 6.432e-05 0 
-2.412e-05 6.432e-05 0 
-1.608e-05 6.432e-05 0 
-8.04e-06 6.432e-05 0 
-6.77626e-21 6.432e-05 0 
8.04e-06 6.432e-05 0 
1.608e-05 6.432e-05 0 
2.412e-05 6.432e-05 0 
3.216e-05 6.432e-05 0 
4.02e-05 6.432e-05 0 
4.824e-05 6.432e-05 0 
5.628e-05 6.432e-05 0 
6.432e-05 6.432e-05 0 
7.236e-05 6.432e-05 0 
8.04e-05 6.432e-05 0 
8.844e-05 6.432e-05 0 
9.648e-05 6.432e-05 0 
-9.648e-05 7.236e-05 0 
-8.844e-05 7.236e-05 0 
-8.04e-05 7.236e-05 0 
-7.236e-05 7.236e-05 0 
-6.432e-05 7.236e-05 0 
-5.628e-05 7.236e-05 0 
-4.824e-05 7.236e-05 0 
-4.02e-05 7.236e-05 0 
-3.216e-05 7.236e-05 0 
-2.412e-05 7.236e-05 0 
-1.608e-05 7.236e-05 0 
-8.04e-06 7.236e-05 0 
-6.77626e-21 7.236e-05 0 
8.04e-06 7.236e-05 0 
1.608e-05 7.236e-05 0 
2.412e-05 7.236e-05 0 
3.216e-05 7.236e-05 0 
4.02e-05 7.236e-05 0 
4.824e-05 7.236e-05 0 
5.628e-05 7.236e-05 0 
6.432e-05 7.236e-05 0 
7.236e-05 7.236e-05 0 
8.04e-05 7.236e-05 0 
8.844e-05 7.236e-05 0 
9.648e-05 7.236e-05 0 
-9.648e-05 8.04e-05 0 
-8.844e-05 8.04e-05 0 
-8.04e-05 8.04e-05 0 
-7.236e-05 8.04e-05 0 
-6.432e-05 8.04e-05 0 
-5.628e-05 8.04e-05 0 
-4.824e-05 8.04e-05 0 
-4.02e-05 8.04e-05 0 
-3.216e-05 8.04e-05 0 
-2.412e-05 8.04e-05 0 
-1.608e-05 8.04e-05 0 
-8.04e-06 8.04e-05 0 
-6.77626e-21 8.04e-05 0 
8.04e-06 8.04e-05 0 
1.608e-05 8.04e-05 0 
2.412e-05 8.04e-05 0 
3.216e-05 8.04e-05 0 
4.02e-05 8.04e-05 0 
4.824e-05 8.04e-05 0 
5.628e-05 8.04e-05 0 
6.432e-05 8.04e-05 0 
7.236e-05 8.04e-05 0 
8.04e-05 8.04e-05 0 
8.844e-05 8.04e-05 0 
9.648e-05 8.04e-05 0 
-9.648e-05 8.844e-05 0 
-8.844e-05 8.844e-05 0 
-8.04e-05 8.844e-05 0 
-7.236e-05 8.844e-05 0 
-6.432e-05 8.844e-05 0 
-5.628e-05 8.844e-05 0 
-4.824e-05 8.844e-05 0 
-4.02e-05 8.844e-05 0 
-3.216e-05 8.844e-05 0 
-2.412e-05 8.844e-05 0 
-1.608e-05 8.844e-05 0 
-8.04e-06 8.844e-05 0 
-6.77626e-21 8.844e-05 0 
8.04e-06 8.844e-05 0 
1.608e-05 8.844e-05 0 
2.412e-05 8.844e-05 0 
3.216e-05 8.844e-05 0 
4.02e-05 8.844e-05 0 
4.824e-05 8.844e-05 0 
5.628e-05 8.844e-05 0 
6.432e-05 8.844e-05 0 
7.236e-05 8.844e-05 0 
8.04e-05 8.844e-05 0 
8.844e-05 8.844e-05 0 
9.648e-05 8.844e-05 0 
-9.648e-05 9.648e-05 0 
-8.844e-05 9.648e-05 0 
-8.04e-05 9.648e-05 0 
-7.236e-05 9.648e-05 0 
-6.432e-05 9.648e-05 0 
-5.628e-05 9.648e-05 0 
-4.824e-05 9.648e-05 0 
-4.02e-05 9.648e-05 0 
-3.216e-05 9.648e-05 0 
-2.412e-05 9.648e-05 0 
-1.608e-05 9.648e-05 0 
-8.04e-06 9.648e-05 0 
-6.77626e-21 9.648e-05 0 
8.04e-06 9.648e-05 0 
1.608e-05 9.648e-05 0 
2.412e-05 9.648e-05 0 
3.216e-05 9.648e-05 0 
4.02e-05 9.648e-05 0 
4.824e-05 9.648e-05 0 
5.628e-05 9.648e-05 0 
6.432e-05 9.648e-05 0 
7.236e-05 9.648e-05 0 
8.04e-05 9.648e-05 0 
8.844e-05 9.648e-05 0 
9.648e-05 9.648e-05 0 
