ITEM: TIMESTEP
100000
ITEM: NUMBER OF CELLS
625
ITEM: BOX BOUNDS pp pp pp
-0.0001005 0.0001005
-0.0001005 0.0001005
-0.0001005 0.0001005
ITEM: CELLS xc yc f_1[1] f_1[2] f_1[3] f_1[4] 
-9.648e-05 -9.648e-05 0 0 0 0 
-8.844e-05 -9.648e-05 0 0 0 0 
-8.04e-05 -9.648e-05 0 0 0 0 
-7.236e-05 -9.648e-05 0 0 0 0 
-6.432e-05 -9.648e-05 0 0 0 0 
-5.628e-05 -9.648e-05 0 0 0 0 
-4.824e-05 -9.648e-05 0 0 0 0 
-4.02e-05 -9.648e-05 3.28365 1.24698e+23 458.496 -178.556 
-3.216e-05 -9.648e-05 123.712 1.0549e+23 459.146 -154.74 
-2.412e-05 -9.648e-05 226.976 1.06548e+23 458.748 -115.847 
-1.608e-05 -9.648e-05 224.362 9.34371e+22 465.684 -81.7478 
-8.04e-06 -9.648e-05 224.236 9.10769e+22 466.926 -48.0581 
-6.77626e-21 -9.648e-05 223.232 8.89192e+22 468.379 -12.1027 
8.04e-06 -9.648e-05 223.646 9.21313e+22 467.319 25.9768 
1.608e-05 -9.648e-05 223.244 9.77626e+22 464.806 66.8396 
2.412e-05 -9.648e-05 223.273 1.09434e+23 459.763 110.39 
3.216e-05 -9.648e-05 213.188 1.28922e+23 453.873 151.468 
4.02e-05 -9.648e-05 17.4157 1.52061e+23 447.338 175.311 
4.824e-05 -9.648e-05 0 0 0 0 
5.628e-05 -9.648e-05 0 0 0 0 
6.432e-05 -9.648e-05 0 0 0 0 
7.236e-05 -9.648e-05 0 0 0 0 
8.04e-05 -9.648e-05 0 0 0 0 
8.844e-05 -9.648e-05 0 0 0 0 
9.648e-05 -9.648e-05 0 0 0 0 
-9.648e-05 -8.844e-05 0 0 0 0 
-8.844e-05 -8.844e-05 0 0 0 0 
-8.04e-05 -8.844e-05 0 0 0 0 
-7.236e-05 -8.844e-05 0 0 0 0 
-6.432e-05 -8.844e-05 0 0 0 0 
-5.628e-05 -8.844e-05 3.14815 1.24891e+23 420.695 -260.928 
-4.824e-05 -8.844e-05 187.401 1.04337e+23 423.482 -234.196 
-4.02e-05 -8.844e-05 232.315 1.14986e+23 429.244 -184.154 
-3.216e-05 -8.844e-05 221.878 7.04996e+22 431.053 -166.185 
-2.412e-05 -8.844e-05 222.545 5.83553e+22 427.768 -131.105 
-1.608e-05 -8.844e-05 221.94 4.7952e+22 429.608 -94.256 
-8.04e-06 -8.844e-05 221.567 4.28999e+22 429.439 -55.786 
-6.77626e-21 -8.844e-05 221.713 4.02705e+22 430.927 -17.8264 
8.04e-06 -8.844e-05 221.712 4.07923e+22 430.77 20.7211 
1.608e-05 -8.844e-05 221.761 4.43058e+22 431.888 60.1716 
2.412e-05 -8.844e-05 222.051 5.35939e+22 430.206 102.734 
3.216e-05 -8.844e-05 227.24 7.40595e+22 427.488 148.765 
4.02e-05 -8.844e-05 233.789 1.37466e+23 408.209 224.937 
4.824e-05 -8.844e-05 147.892 1.25283e+23 417.727 245.588 
5.628e-05 -8.844e-05 7.37035 1.35211e+23 413.663 259.809 
6.432e-05 -8.844e-05 0 0 0 0 
7.236e-05 -8.844e-05 0 0 0 0 
8.04e-05 -8.844e-05 0 0 0 0 
8.844e-05 -8.844e-05 0 0 0 0 
9.648e-05 -8.844e-05 0 0 0 0 
-9.648e-05 -8.04e-05 0 0 0 0 
-8.844e-05 -8.04e-05 0 0 0 0 
-8.04e-05 -8.04e-05 0 0 0 0 
-7.236e-05 -8.04e-05 0 0 0 0 
-6.432e-05 -8.04e-05 55.5744 1.28563e+23 390.137 -298.778 
-5.628e-05 -8.04e-05 227.929 1.07109e+23 396.336 -261.366 
-4.824e-05 -8.04e-05 223.293 6.83822e+22 390.03 -243.058 
-4.02e-05 -8.04e-05 221.913 4.8165e+22 387.895 -207.03 
-3.216e-05 -8.04e-05 221.619 3.50253e+22 388.705 -165.772 
-2.412e-05 -8.04e-05 220.823 2.66569e+22 389.315 -125.377 
-1.608e-05 -8.04e-05 219.647 2.17133e+22 389.367 -86.305 
-8.04e-06 -8.04e-05 217.586 1.89397e+22 389.025 -46.8407 
-6.77626e-21 -8.04e-05 217.153 1.79611e+22 389.06 -8.64612 
8.04e-06 -8.04e-05 218.561 1.85118e+22 388.984 30.4097 
1.608e-05 -8.04e-05 219.901 2.04167e+22 390.134 67.6444 
2.412e-05 -8.04e-05 220.821 2.43478e+22 390.96 105.6 
3.216e-05 -8.04e-05 220.776 3.02993e+22 393.581 139.914 
4.02e-05 -8.04e-05 220.849 4.07613e+22 385.399 187.203 
4.824e-05 -8.04e-05 225.23 6.92535e+22 383.168 243.796 
5.628e-05 -8.04e-05 227.903 1.17727e+23 377.627 287.338 
6.432e-05 -8.04e-05 58.5033 1.24989e+23 378.954 305.996 
7.236e-05 -8.04e-05 0 0 0 0 
8.04e-05 -8.04e-05 0 0 0 0 
8.844e-05 -8.04e-05 0 0 0 0 
9.648e-05 -8.04e-05 0 0 0 0 
-9.648e-05 -7.236e-05 0 0 0 0 
-8.844e-05 -7.236e-05 0 0 0 0 
-8.04e-05 -7.236e-05 0 0 0 0 
-7.236e-05 -7.236e-05 83.531 1.24786e+23 352.952 -338.49 
-6.432e-05 -7.236e-05 229.961 1.02718e+23 359.343 -299.497 
-5.628e-05 -7.236e-05 221.82 5.48441e+22 347.656 -282.513 
-4.824e-05 -7.236e-05 221.672 3.59076e+22 350.432 -240.989 
-4.02e-05 -7.236e-05 219.984 2.39048e+22 351.045 -198.554 
-3.216e-05 -7.236e-05 213.046 1.66889e+22 348.926 -155.846 
-2.412e-05 -7.236e-05 197.545 1.26416e+22 346.433 -115.873 
-1.608e-05 -7.236e-05 181.422 1.03476e+22 344.228 -78.0298 
-8.04e-06 -7.236e-05 170.08 9.19641e+21 342.556 -41.3992 
-6.77626e-21 -7.236e-05 165.75 8.77107e+21 341.906 -5.21491 
8.04e-06 -7.236e-05 167.353 8.99189e+21 342.687 31.0901 
1.608e-05 -7.236e-05 175.894 9.98741e+21 342.842 68.7926 
2.412e-05 -7.236e-05 191.076 1.19607e+22 344.851 105.92 
3.216e-05 -7.236e-05 210.372 1.5498e+22 347.444 144.738 
4.02e-05 -7.236e-05 221.103 2.15404e+22 348.497 184.24 
4.824e-05 -7.236e-05 221.053 3.31769e+22 349.422 229.279 
5.628e-05 -7.236e-05 222.112 5.39206e+22 350.673 278.043 
6.432e-05 -7.236e-05 229.353 1.04547e+23 340.387 321.046 
7.236e-05 -7.236e-05 83.4279 1.24671e+23 338.367 352.99 
8.04e-05 -7.236e-05 0 0 0 0 
8.844e-05 -7.236e-05 0 0 0 0 
9.648e-05 -7.236e-05 0 0 0 0 
-9.648e-05 -6.432e-05 0 0 0 0 
-8.844e-05 -6.432e-05 0 0 0 0 
-8.04e-05 -6.432e-05 58.3631 1.24972e+23 306.488 -379.118 
-7.236e-05 -6.432e-05 229.801 1.04278e+23 321.259 -340.314 
-6.432e-05 -6.432e-05 221.883 5.17494e+22 311.771 -317.593 
-5.628e-05 -6.432e-05 221.56 3.08367e+22 312.768 -274.064 
-4.824e-05 -6.432e-05 214.697 1.87211e+22 312.396 -229.252 
-4.02e-05 -6.432e-05 191.047 1.20577e+22 308.071 -186.935 
-3.216e-05 -6.432e-05 162.153 8.57393e+21 303.265 -148.405 
-2.412e-05 -6.432e-05 140.729 6.59649e+21 297.885 -109.851 
-1.608e-05 -6.432e-05 127.74 5.49356e+21 293.679 -73.1074 
-8.04e-06 -6.432e-05 120.807 4.9208e+21 289.582 -38.2135 
-6.77626e-21 -6.432e-05 118.52 4.74362e+21 288.286 -4.877 
8.04e-06 -6.432e-05 119.861 4.84894e+21 290.043 28.1937 
1.608e-05 -6.432e-05 126.5 5.34338e+21 293.217 64.372 
2.412e-05 -6.432e-05 138.161 6.34071e+21 297.631 101.664 
3.216e-05 -6.432e-05 157.988 8.08937e+21 302.206 142.087 
4.02e-05 -6.432e-05 185.899 1.13361e+22 303.271 184.104 
4.824e-05 -6.432e-05 214.324 1.76659e+22 304.599 229.037 
5.628e-05 -6.432e-05 220.962 2.96019e+22 310.303 272.493 
6.432e-05 -6.432e-05 221.719 5.18835e+22 317.631 311.635 
7.236e-05 -6.432e-05 229.895 1.02864e+23 299.525 359.429 
8.04e-05 -6.432e-05 55.6767 1.28474e+23 298.448 389.953 
8.844e-05 -6.432e-05 0 0 0 0 
9.648e-05 -6.432e-05 0 0 0 0 
-9.648e-05 -5.628e-05 0 0 0 0 
-8.844e-05 -5.628e-05 7.35265 1.35751e+23 258.097 -415.362 
-8.04e-05 -5.628e-05 228.101 1.17317e+23 287.214 -377.89 
-7.236e-05 -5.628e-05 221.934 5.41604e+22 278.004 -349.923 
-6.432e-05 -5.628e-05 221.257 2.98666e+22 271.908 -309.951 
-5.628e-05 -5.628e-05 212.103 1.68457e+22 270.841 -265.014 
-4.824e-05 -5.628e-05 176.162 1.00939e+22 266.971 -221.252 
-4.02e-05 -5.628e-05 141.876 6.73409e+21 259.595 -180.054 
-3.216e-05 -5.628e-05 119.332 4.89907e+21 251.02 -139.532 
-2.412e-05 -5.628e-05 106.177 3.84598e+21 244.028 -102.925 
-1.608e-05 -5.628e-05 98.054 3.29444e+21 235.446 -68.0185 
-8.04e-06 -5.628e-05 93.1235 2.95871e+21 235.035 -35.711 
-6.77626e-21 -5.628e-05 90.9636 2.84968e+21 235.968 -5.42842 
8.04e-06 -5.628e-05 92.6312 2.94867e+21 235.413 25.8473 
1.608e-05 -5.628e-05 97.4965 3.2056e+21 240.386 57.4904 
2.412e-05 -5.628e-05 105.721 3.74195e+21 246.15 93.6291 
3.216e-05 -5.628e-05 118.604 4.73936e+21 251.918 134.303 
4.02e-05 -5.628e-05 140.357 6.51592e+21 257.14 178.508 
4.824e-05 -5.628e-05 174.375 9.88673e+21 260.333 224.451 
5.628e-05 -5.628e-05 211.87 1.6832e+22 264.779 270.852 
6.432e-05 -5.628e-05 221.746 3.07535e+22 273.643 313.434 
7.236e-05 -5.628e-05 221.93 5.48609e+22 282.354 348.028 
8.04e-05 -5.628e-05 228.288 1.06824e+23 261.284 396.361 
8.844e-05 -5.628e-05 3.14605 1.24102e+23 259.179 418.935 
9.648e-05 -5.628e-05 0 0 0 0 
-9.648e-05 -4.824e-05 0 0 0 0 
-8.844e-05 -4.824e-05 147.419 1.25043e+23 246.31 -417.878 
-8.04e-05 -4.824e-05 225.122 6.94579e+22 243.368 -382.42 
-7.236e-05 -4.824e-05 221.229 3.32854e+22 228.778 -349.069 
-6.432e-05 -4.824e-05 215.04 1.77476e+22 229.094 -304.716 
-5.628e-05 -4.824e-05 174.747 9.85529e+21 224.501 -259.972 
-4.824e-05 -4.824e-05 135.419 6.10484e+21 216.655 -215.859 
-4.02e-05 -4.824e-05 110.489 4.19059e+21 205.914 -172.695 
-3.216e-05 -4.824e-05 95.1509 3.10688e+21 196.679 -132.018 
-2.412e-05 -4.824e-05 85.0384 2.50278e+21 188.107 -95.976 
-1.608e-05 -4.824e-05 78.3466 2.17145e+21 181.683 -63.0509 
-8.04e-06 -4.824e-05 73.2062 1.99124e+21 179.265 -33.6328 
-6.77626e-21 -4.824e-05 72.8972 1.93861e+21 177.687 -7.1161 
8.04e-06 -4.824e-05 74.1238 1.99112e+21 181.857 22.9667 
1.608e-05 -4.824e-05 76.8717 2.14022e+21 186.845 51.8529 
2.412e-05 -4.824e-05 83.8632 2.43476e+21 195.243 85.5649 
3.216e-05 -4.824e-05 94.621 3.03757e+21 203.205 125.265 
4.02e-05 -4.824e-05 110.303 4.1092e+21 210.477 171.595 
4.824e-05 -4.824e-05 135.428 6.11194e+21 215.609 218.158 
5.628e-05 -4.824e-05 176.329 1.00777e+22 221.951 266.26 
6.432e-05 -4.824e-05 215.194 1.87133e+22 229.527 313.01 
7.236e-05 -4.824e-05 221.469 3.59066e+22 240.895 350.762 
8.04e-05 -4.824e-05 223.362 6.85261e+22 242.655 389.788 
8.844e-05 -4.824e-05 185.78 1.0409e+23 233.96 423.328 
9.648e-05 -4.824e-05 0 0 0 0 
-9.648e-05 -4.02e-05 17.4782 1.52632e+23 176.339 -448.042 
-8.844e-05 -4.02e-05 233.716 1.36881e+23 224.846 -408.238 
-8.04e-05 -4.02e-05 220.547 4.08475e+22 187.11 -385.04 
-7.236e-05 -4.02e-05 220.977 2.15755e+22 184.007 -349.37 
-6.432e-05 -4.02e-05 186.148 1.12946e+22 183.059 -303.748 
-5.628e-05 -4.02e-05 140.068 6.50075e+21 175.811 -257.047 
-4.824e-05 -4.02e-05 110.257 4.11425e+21 168.117 -210.026 
-4.02e-05 -4.02e-05 91.294 2.87082e+21 157.393 -164.714 
-3.216e-05 -4.02e-05 78.9571 2.20833e+21 148.526 -126.345 
-2.412e-05 -4.02e-05 70.7497 1.80745e+21 142.28 -88.8466 
-1.608e-05 -4.02e-05 64.8755 1.61056e+21 136.447 -58.5931 
-8.04e-06 -4.02e-05 62.1386 1.49486e+21 132.932 -30.3072 
-6.77626e-21 -4.02e-05 61.0829 1.45714e+21 131.849 -5.60729 
8.04e-06 -4.02e-05 61.9593 1.47521e+21 133.3 17.3404 
1.608e-05 -4.02e-05 64.6902 1.59529e+21 140.015 48.006 
2.412e-05 -4.02e-05 69.7496 1.77552e+21 148.522 77.0436 
3.216e-05 -4.02e-05 77.7386 2.14001e+21 158.162 115.555 
4.02e-05 -4.02e-05 91.6896 2.87417e+21 165.042 160.8 
4.824e-05 -4.02e-05 110.749 4.20519e+21 173.131 209.336 
5.628e-05 -4.02e-05 142.143 6.68389e+21 180.704 258.955 
6.432e-05 -4.02e-05 191.065 1.20734e+22 186.89 309.347 
7.236e-05 -4.02e-05 219.971 2.3921e+22 198.217 351.706 
8.04e-05 -4.02e-05 221.936 4.81319e+22 206.889 388.366 
8.844e-05 -4.02e-05 232.212 1.14152e+23 184.871 429.216 
9.648e-05 -4.02e-05 3.2896 1.24063e+23 179.367 458.856 
-9.648e-05 -3.216e-05 213.563 1.29096e+23 151.212 -453.769 
-8.844e-05 -3.216e-05 227.437 7.39809e+22 148.302 -427.058 
-8.04e-05 -3.216e-05 220.645 3.03661e+22 139.701 -393.591 
-7.236e-05 -3.216e-05 210.306 1.55235e+22 144.164 -348.642 
-6.432e-05 -3.216e-05 158.545 8.0966e+21 139.851 -300.313 
-5.628e-05 -3.216e-05 119.092 4.75711e+21 133.749 -252.303 
-4.824e-05 -3.216e-05 94.7873 3.05013e+21 125.593 -202.823 
-4.02e-05 -3.216e-05 78.1346 2.18105e+21 116.007 -157.126 
-3.216e-05 -3.216e-05 67.8374 1.71345e+21 103.974 -117.339 
-2.412e-05 -3.216e-05 60.7001 1.44084e+21 95.1108 -82.1356 
-1.608e-05 -3.216e-05 55.9388 1.27637e+21 89.9158 -54.3696 
-8.04e-06 -3.216e-05 54.4173 1.18249e+21 90.359 -25.427 
-6.77626e-21 -3.216e-05 53.7376 1.1586e+21 90.8884 -6.11547 
8.04e-06 -3.216e-05 53.8102 1.19397e+21 93.3799 17.0153 
1.608e-05 -3.216e-05 56.567 1.25883e+21 98.9976 40.383 
2.412e-05 -3.216e-05 60.7944 1.44384e+21 106.629 68.7735 
3.216e-05 -3.216e-05 67.4152 1.69885e+21 115.577 102.941 
4.02e-05 -3.216e-05 78.1146 2.20006e+21 125.53 148.447 
4.824e-05 -3.216e-05 95.3156 3.13015e+21 133.32 198.197 
5.628e-05 -3.216e-05 120.061 4.90536e+21 141.427 251.344 
6.432e-05 -3.216e-05 163.171 8.58243e+21 147.337 303.152 
7.236e-05 -3.216e-05 212.463 1.67277e+22 156.243 349.834 
8.04e-05 -3.216e-05 221.623 3.51243e+22 165.936 388.838 
8.844e-05 -3.216e-05 221.765 7.02726e+22 166.339 431.349 
9.648e-05 -3.216e-05 123.259 1.05243e+23 155.127 459.604 
-9.648e-05 -2.412e-05 223.428 1.09207e+23 110.198 -459.248 
-8.844e-05 -2.412e-05 222.403 5.37186e+22 103.189 -429.805 
-8.04e-05 -2.412e-05 220.634 2.4363e+22 105.588 -390.301 
-7.236e-05 -2.412e-05 191.626 1.1995e+22 104.814 -344.997 
-6.432e-05 -2.412e-05 138.86 6.38175e+21 100.942 -295.784 
-5.628e-05 -2.412e-05 105.814 3.78643e+21 94.8051 -244.82 
-4.824e-05 -2.412e-05 84.428 2.47868e+21 86.6942 -194.632 
-4.02e-05 -2.412e-05 69.8109 1.80563e+21 77.5985 -146.79 
-3.216e-05 -2.412e-05 60.8008 1.43902e+21 69.4507 -106.835 
-2.412e-05 -2.412e-05 55.0975 1.21997e+21 62.949 -75.7316 
-1.608e-05 -2.412e-05 51.6672 1.10255e+21 59.0031 -47.641 
-8.04e-06 -2.412e-05 49.3137 1.04616e+21 56.0161 -24.211 
-6.77626e-21 -2.412e-05 48.3807 1.0163e+21 58.0375 -3.67277 
8.04e-06 -2.412e-05 48.9105 1.04487e+21 60.5929 14.8492 
1.608e-05 -2.412e-05 51.3954 1.08466e+21 69.5154 36.4641 
2.412e-05 -2.412e-05 54.4219 1.23134e+21 73.7316 62.009 
3.216e-05 -2.412e-05 60.3672 1.45177e+21 80.4437 95.323 
4.02e-05 -2.412e-05 69.9657 1.82203e+21 86.85 138.223 
4.824e-05 -2.412e-05 84.4043 2.49338e+21 97.7125 190.676 
5.628e-05 -2.412e-05 105.665 3.87603e+21 102.993 243.778 
6.432e-05 -2.412e-05 141.838 6.63118e+21 108.993 296.483 
7.236e-05 -2.412e-05 197.515 1.26669e+22 115.193 346.032 
8.04e-05 -2.412e-05 221.168 2.67857e+22 125.731 389.466 
8.844e-05 -2.412e-05 222.6 5.83961e+22 131.721 427.984 
9.648e-05 -2.412e-05 226.729 1.05858e+23 115.897 459.333 
-9.648e-05 -1.608e-05 223.34 9.77806e+22 66.6135 -464.441 
-8.844e-05 -1.608e-05 221.427 4.45052e+22 60.4324 -431.542 
-8.04e-05 -1.608e-05 219.604 2.03724e+22 67.6021 -388.821 
-7.236e-05 -1.608e-05 177.256 1.00663e+22 67.0282 -342.03 
-6.432e-05 -1.608e-05 127.131 5.43121e+21 64.2365 -293.276 
-5.628e-05 -1.608e-05 98.111 3.21311e+21 59.7636 -239.909 
-4.824e-05 -1.608e-05 78.0952 2.15284e+21 52.7535 -186.347 
-4.02e-05 -1.608e-05 65.0816 1.59521e+21 45.6654 -137.716 
-3.216e-05 -1.608e-05 56.4969 1.28372e+21 40.1088 -100.143 
-2.412e-05 -1.608e-05 51.8151 1.08755e+21 35.5068 -70.3522 
-1.608e-05 -1.608e-05 48.1495 9.82555e+20 33.4156 -43.4752 
-8.04e-06 -1.608e-05 46.435 9.4981e+20 33.3492 -20.019 
-6.77626e-21 -1.608e-05 45.9435 9.43544e+20 34.5588 -2.11132 
8.04e-06 -1.608e-05 46.2766 9.47596e+20 39.4902 14.1181 
1.608e-05 -1.608e-05 47.794 1.00662e+21 42.0679 32.9405 
2.412e-05 -1.608e-05 51.449 1.10779e+21 46.8045 57.8753 
3.216e-05 -1.608e-05 56.3937 1.27648e+21 53.8422 91.0728 
4.02e-05 -1.608e-05 64.6517 1.58651e+21 60.3375 131.607 
4.824e-05 -1.608e-05 77.6067 2.14959e+21 64.117 183.184 
5.628e-05 -1.608e-05 97.8709 3.28717e+21 69.0222 239.318 
6.432e-05 -1.608e-05 128.228 5.53641e+21 72.1165 292.618 
7.236e-05 -1.608e-05 182.026 1.04004e+22 77.6262 343.544 
8.04e-05 -1.608e-05 219.265 2.16727e+22 86.9588 388.874 
8.844e-05 -1.608e-05 221.532 4.81524e+22 95.0525 429.522 
9.648e-05 -1.608e-05 224.31 9.32514e+22 81.4907 465.978 
-9.648e-05 -8.04e-06 223.478 9.22541e+22 25.8295 -466.843 
-8.844e-05 -8.04e-06 221.564 4.08625e+22 20.6384 -431.195 
-8.04e-05 -8.04e-06 218.513 1.83903e+22 30.2041 -387.851 
-7.236e-05 -8.04e-06 168.919 9.11141e+21 31.2854 -340.392 
-6.432e-05 -8.04e-06 120.49 4.92699e+21 28.3268 -289.909 
-5.628e-05 -8.04e-06 92.8854 2.95169e+21 26.2404 -236.105 
-4.824e-05 -8.04e-06 74.4943 1.98719e+21 21.8379 -180.52 
-4.02e-05 -8.04e-06 62.4166 1.47419e+21 17.8841 -132.257 
-3.216e-05 -8.04e-06 54.7015 1.20949e+21 15.0385 -95.2783 
-2.412e-05 -8.04e-06 50.0684 1.04564e+21 14.1 -62.7647 
-1.608e-05 -8.04e-06 46.3021 9.47009e+20 13.9833 -37.5304 
-8.04e-06 -8.04e-06 44.6073 9.17032e+20 14.0493 -18.1646 
-6.77626e-21 -8.04e-06 44.3359 9.1727e+20 17.0426 -0.763203 
8.04e-06 -8.04e-06 44.2903 9.08006e+20 19.4752 15.429 
1.608e-05 -8.04e-06 46.1158 9.63317e+20 21.8169 34.0964 
2.412e-05 -8.04e-06 49.4122 1.03406e+21 26.4711 57.3399 
3.216e-05 -8.04e-06 53.9515 1.19482e+21 27.9921 87.95 
4.02e-05 -8.04e-06 61.3384 1.46002e+21 31.8748 128.384 
4.824e-05 -8.04e-06 73.9488 2.01127e+21 33.9224 181.346 
5.628e-05 -8.04e-06 92.847 2.96961e+21 34.8764 235.5 
6.432e-05 -8.04e-06 120.818 4.9651e+21 37.4111 291.247 
7.236e-05 -8.04e-06 170.387 9.19399e+21 40.8079 342.753 
8.04e-05 -8.04e-06 217.444 1.88669e+22 47.5424 388.169 
8.844e-05 -8.04e-06 221.673 4.30467e+22 56.2396 429.452 
9.648e-05 -8.04e-06 224.003 9.07883e+22 47.8027 466.921 
-9.648e-05 -6.77626e-21 223.43 8.90025e+22 -12.1723 -468.163 
-8.844e-05 -6.77626e-21 221.644 4.03591e+22 -18.1216 -430.628 
-8.04e-05 -6.77626e-21 217.202 1.80026e+22 -7.30239 -386.969 
-7.236e-05 -6.77626e-21 166.361 8.80535e+21 -4.66681 -340.706 
-6.432e-05 -6.77626e-21 118.438 4.77465e+21 -5.01751 -289.611 
-5.628e-05 -6.77626e-21 91.4986 2.89757e+21 -7.48443 -232.772 
-4.824e-05 -6.77626e-21 72.748 1.91914e+21 -7.35754 -178.863 
-4.02e-05 -6.77626e-21 60.72 1.44125e+21 -7.09408 -131.773 
-3.216e-05 -6.77626e-21 53.5694 1.17233e+21 -7.09876 -90.8339 
-2.412e-05 -6.77626e-21 48.8822 1.05722e+21 -6.55099 -59.3065 
-1.608e-05 -6.77626e-21 45.5271 9.38516e+20 -5.26086 -34.0815 
-8.04e-06 -6.77626e-21 43.9766 9.01448e+20 -2.80482 -15.8632 
-6.77626e-21 -6.77626e-21 42.797 8.90064e+20 -2.26086 2.32443 
8.04e-06 -6.77626e-21 43.6272 9.00698e+20 0.0840505 16.1978 
1.608e-05 -6.77626e-21 45.6324 9.54665e+20 3.78779 36.1227 
2.412e-05 -6.77626e-21 48.3927 1.02936e+21 5.77306 57.9976 
3.216e-05 -6.77626e-21 53.4761 1.17819e+21 6.72748 88.1369 
4.02e-05 -6.77626e-21 60.3678 1.43026e+21 6.63511 129.846 
4.824e-05 -6.77626e-21 72.5656 1.95876e+21 4.39783 180.08 
5.628e-05 -6.77626e-21 91.3826 2.88792e+21 5.46631 233.76 
6.432e-05 -6.77626e-21 118.577 4.78343e+21 4.16601 289.835 
7.236e-05 -6.77626e-21 165.914 8.75603e+21 5.07794 341.667 
8.04e-05 -6.77626e-21 217.804 1.79151e+22 8.36921 387.784 
8.844e-05 -6.77626e-21 221.171 4.03677e+22 18.5515 430.887 
9.648e-05 -6.77626e-21 223.292 8.90041e+22 12.0514 468.268 
-9.648e-05 8.04e-06 224.038 9.08793e+22 -47.8627 -466.668 
-8.844e-05 8.04e-06 221.562 4.29997e+22 -56.0163 -429.006 
-8.04e-05 8.04e-06 217.854 1.89694e+22 -46.9865 -387.808 
-7.236e-05 8.04e-06 170.752 9.19963e+21 -40.4167 -341.919 
-6.432e-05 8.04e-06 121.003 4.94828e+21 -38.8406 -290.827 
-5.628e-05 8.04e-06 92.955 2.99286e+21 -35.9619 -235.139 
-4.824e-05 8.04e-06 74.0472 2.0013e+21 -33.6478 -176.881 
-4.02e-05 8.04e-06 62.3821 1.50244e+21 -33.0042 -129.967 
-3.216e-05 8.04e-06 54.4905 1.20798e+21 -29.7228 -89.281 
-2.412e-05 8.04e-06 49.3396 1.05742e+21 -28.1588 -57.7231 
-1.608e-05 8.04e-06 46.1878 9.6315e+20 -25.1104 -32.6387 
-8.04e-06 8.04e-06 44.1519 9.19879e+20 -20.7545 -13.1552 
-6.77626e-21 8.04e-06 43.9217 9.16213e+20 -17.3046 3.91682 
8.04e-06 8.04e-06 44.4464 9.05811e+20 -14.2466 18.1632 
1.608e-05 8.04e-06 46.5269 9.86939e+20 -12.5561 36.8182 
2.412e-05 8.04e-06 49.2625 1.06114e+21 -13.0476 59.7738 
3.216e-05 8.04e-06 54.3614 1.20411e+21 -15.8632 92.7873 
4.02e-05 8.04e-06 61.7345 1.45677e+21 -19.3804 134.006 
4.824e-05 8.04e-06 73.5683 2.00886e+21 -21.472 181.748 
5.628e-05 8.04e-06 93.0435 2.96698e+21 -26.5818 235.923 
6.432e-05 8.04e-06 120.346 4.90099e+21 -29.4946 291.332 
7.236e-05 8.04e-06 167.472 8.98581e+21 -31.5767 342.11 
8.04e-05 8.04e-06 218.484 1.83599e+22 -30.2969 388.459 
8.844e-05 8.04e-06 221.81 4.08622e+22 -20.5855 431.306 
9.648e-05 8.04e-06 223.606 9.21979e+22 -26.2831 466.828 
-9.648e-05 1.608e-05 224.3 9.33655e+22 -81.6584 -465.65 
-8.844e-05 1.608e-05 222.03 4.8129e+22 -94.7947 -428.96 
-8.04e-05 1.608e-05 220.156 2.1732e+22 -86.6691 -388.583 
-7.236e-05 1.608e-05 182.218 1.03835e+22 -77.3852 -343.453 
-6.432e-05 1.608e-05 128.718 5.52763e+21 -72.5108 -292.037 
-5.628e-05 1.608e-05 97.6654 3.30497e+21 -67.2869 -238.703 
-4.824e-05 1.608e-05 77.3402 2.15199e+21 -63.0347 -181.795 
-4.02e-05 1.608e-05 64.6157 1.57491e+21 -60.1989 -132.846 
-3.216e-05 1.608e-05 57.2754 1.30239e+21 -55.7536 -91.7896 
-2.412e-05 1.608e-05 51.2774 1.10778e+21 -50.5756 -58.3761 
-1.608e-05 1.608e-05 48.0869 1.01463e+21 -43.9161 -34.6857 
-8.04e-06 1.608e-05 46.3355 9.55364e+20 -40.4436 -11.3003 
-6.77626e-21 1.608e-05 45.5553 9.19697e+20 -37.106 2.50936 
8.04e-06 1.608e-05 46.1127 9.56612e+20 -32.4924 21.004 
1.608e-05 1.608e-05 47.2122 1.0062e+21 -32.6447 40.977 
2.412e-05 1.608e-05 51.2272 1.12819e+21 -33.5592 64.4909 
3.216e-05 1.608e-05 56.5757 1.26861e+21 -40.5259 100.515 
4.02e-05 1.608e-05 64.7216 1.57365e+21 -47.3001 139.196 
4.824e-05 1.608e-05 77.5408 2.15869e+21 -53.0967 188.975 
5.628e-05 1.608e-05 97.4412 3.2491e+21 -60.2259 240.981 
6.432e-05 1.608e-05 126.682 5.38146e+21 -64.2641 293.515 
7.236e-05 1.608e-05 176.22 9.95502e+21 -67.9905 342.782 
8.04e-05 1.608e-05 219.466 2.04093e+22 -68.362 389.201 
8.844e-05 1.608e-05 221.917 4.45224e+22 -60.9429 431.684 
9.648e-05 1.608e-05 223.376 9.79094e+22 -66.9338 464.521 
-9.648e-05 2.412e-05 226.864 1.05881e+23 -115.754 -458.95 
-8.844e-05 2.412e-05 222.602 5.83153e+22 -131.12 -427.497 
-8.04e-05 2.412e-05 220.581 2.67216e+22 -125.629 -388.929 
-7.236e-05 2.412e-05 198.463 1.26477e+22 -115.981 -346.752 
-6.432e-05 2.412e-05 141.298 6.61478e+21 -109.549 -298.412 
-5.628e-05 2.412e-05 106.314 3.88122e+21 -101.504 -243.857 
-4.824e-05 2.412e-05 84.3965 2.47831e+21 -96.9645 -189.487 
-4.02e-05 2.412e-05 70.1587 1.77877e+21 -89.4237 -139.011 
-3.216e-05 2.412e-05 60.7272 1.43132e+21 -81.3402 -95.6528 
-2.412e-05 2.412e-05 55.3957 1.22559e+21 -74.7925 -63.7267 
-1.608e-05 2.412e-05 51.5732 1.0868e+21 -68.9539 -39.5256 
-8.04e-06 2.412e-05 49.3242 1.03475e+21 -62.3252 -13.4794 
-6.77626e-21 2.412e-05 48.3346 1.00243e+21 -57.1441 3.9108 
8.04e-06 2.412e-05 49.3742 1.04764e+21 -56.0642 24.0606 
1.608e-05 2.412e-05 50.6224 1.08001e+21 -57.9512 48.2338 
2.412e-05 2.412e-05 55.1748 1.25024e+21 -62.221 72.662 
3.216e-05 2.412e-05 61.2704 1.43156e+21 -70.2651 108.227 
4.02e-05 2.412e-05 70.7472 1.80281e+21 -80.825 148.248 
4.824e-05 2.412e-05 84.6195 2.51202e+21 -87.3017 194.83 
5.628e-05 2.412e-05 105.945 3.78767e+21 -95.3281 246.513 
6.432e-05 2.412e-05 138.825 6.38869e+21 -102.114 296.506 
7.236e-05 2.412e-05 191.467 1.194e+22 -106.514 344.01 
8.04e-05 2.412e-05 220.275 2.43644e+22 -106.399 390.397 
8.844e-05 2.412e-05 222.25 5.36424e+22 -103.564 430.267 
9.648e-05 2.412e-05 223.471 1.09196e+23 -110.034 459.668 
-9.648e-05 3.216e-05 122.62 1.05202e+23 -155.321 -459.009 
-8.844e-05 3.216e-05 221.774 7.05711e+22 -165.908 -430.49 
-8.04e-05 3.216e-05 221.714 3.50163e+22 -166.075 -388.376 
-7.236e-05 3.216e-05 212.853 1.67286e+22 -156.105 -349.702 
-6.432e-05 3.216e-05 163.128 8.58447e+21 -147.793 -304.118 
-5.628e-05 3.216e-05 120.329 4.91521e+21 -139.261 -250.091 
-4.824e-05 3.216e-05 95.0685 3.09022e+21 -134.124 -197.799 
-4.02e-05 3.216e-05 78.1693 2.16318e+21 -126.123 -149.424 
-3.216e-05 3.216e-05 67.7292 1.68819e+21 -116.704 -104.467 
-2.412e-05 3.216e-05 61.0144 1.41358e+21 -107.493 -71.1339 
-1.608e-05 3.216e-05 56.6351 1.27647e+21 -100.521 -41.8235 
-8.04e-06 3.216e-05 54.5264 1.20129e+21 -93.193 -16.0471 
-6.77626e-21 3.216e-05 53.5367 1.16057e+21 -91.7673 5.65895 
8.04e-06 3.216e-05 54.4506 1.17937e+21 -92.5654 28.2678 
1.608e-05 3.216e-05 56.9654 1.27658e+21 -94.1503 52.9829 
2.412e-05 3.216e-05 60.955 1.4469e+21 -98.2057 82.4584 
3.216e-05 3.216e-05 68.0145 1.72182e+21 -106.255 116.334 
4.02e-05 3.216e-05 79.1607 2.19786e+21 -115.102 156.113 
4.824e-05 3.216e-05 95.8581 3.1247e+21 -124.703 201.862 
5.628e-05 3.216e-05 119.198 4.79159e+21 -134.466 251.498 
6.432e-05 3.216e-05 158.709 8.11326e+21 -141.217 300.334 
7.236e-05 3.216e-05 210.784 1.54996e+22 -145.125 347.973 
8.04e-05 3.216e-05 220.907 3.02239e+22 -140.43 393.884 
8.844e-05 3.216e-05 227.271 7.42226e+22 -148.779 427.494 
9.648e-05 3.216e-05 212.927 1.28818e+23 -151.799 453.859 
-9.648e-05 4.02e-05 3.2652 1.24135e+23 -178.35 -458.587 
-8.844e-05 4.02e-05 232.301 1.15159e+23 -184.394 -429.157 
-8.04e-05 4.02e-05 222.224 4.80958e+22 -207.67 -387.651 
-7.236e-05 4.02e-05 219.959 2.39058e+22 -198.023 -351.362 
-6.432e-05 4.02e-05 191.179 1.20985e+22 -186.337 -308.767 
-5.628e-05 4.02e-05 143.434 6.78734e+21 -179.871 -258.13 
-4.824e-05 4.02e-05 110.842 4.16043e+21 -174.285 -206.503 
-4.02e-05 4.02e-05 91.9236 2.87922e+21 -167.407 -158.632 
-3.216e-05 4.02e-05 78.387 2.18499e+21 -157.471 -113.421 
-2.412e-05 4.02e-05 70.1023 1.79562e+21 -149.035 -77.1018 
-1.608e-05 4.02e-05 65.3542 1.58733e+21 -140.305 -47.0305 
-8.04e-06 4.02e-05 61.6837 1.49138e+21 -133.555 -18.8267 
-6.77626e-21 4.02e-05 60.6928 1.45836e+21 -131.561 6.23635 
8.04e-06 4.02e-05 62.2178 1.51232e+21 -130.8 31.4936 
1.608e-05 4.02e-05 65.4978 1.61237e+21 -134.114 57.3987 
2.412e-05 4.02e-05 70.6638 1.82525e+21 -139.831 89.4966 
3.216e-05 4.02e-05 79.5999 2.23457e+21 -147.928 124.158 
4.02e-05 4.02e-05 91.978 2.90477e+21 -158.05 164.427 
4.824e-05 4.02e-05 110.899 4.14819e+21 -168.774 211.541 
5.628e-05 4.02e-05 140.455 6.52504e+21 -176.658 256.941 
6.432e-05 4.02e-05 186.319 1.13575e+22 -182.715 302.511 
7.236e-05 4.02e-05 220.796 2.14747e+22 -184.27 349.275 
8.04e-05 4.02e-05 220.699 4.05937e+22 -187.058 386.609 
8.844e-05 4.02e-05 233.91 1.36879e+23 -224.313 408.157 
9.648e-05 4.02e-05 17.2699 1.50996e+23 -176.769 447.859 
-9.648e-05 4.824e-05 0 0 0 0 
-8.844e-05 4.824e-05 188.15 1.04501e+23 -233.852 -422.824 
-8.04e-05 4.824e-05 223.188 6.83235e+22 -243.575 -389.689 
-7.236e-05 4.824e-05 221.992 3.60309e+22 -240.696 -350.326 
-6.432e-05 4.824e-05 215.263 1.87773e+22 -228.578 -313.192 
-5.628e-05 4.824e-05 176.716 1.00945e+22 -219.613 -265.488 
-4.824e-05 4.824e-05 135.427 6.13959e+21 -215.916 -216.008 
-4.02e-05 4.824e-05 110.048 4.09622e+21 -211.699 -168.626 
-3.216e-05 4.824e-05 94.912 3.05435e+21 -204.693 -125.3 
-2.412e-05 4.824e-05 85.0344 2.48032e+21 -195.727 -85.6192 
-1.608e-05 4.824e-05 78.1791 2.16814e+21 -188.266 -52.9987 
-8.04e-06 4.824e-05 73.9555 2.01658e+21 -182.103 -21.897 
-6.77626e-21 4.824e-05 73.0915 1.9381e+21 -179.453 5.01428 
8.04e-06 4.824e-05 73.7875 1.97342e+21 -179.872 33.3771 
1.608e-05 4.824e-05 78.141 2.17096e+21 -183.211 64.7382 
2.412e-05 4.824e-05 85.113 2.50493e+21 -189.673 96.6809 
3.216e-05 4.824e-05 96.1721 3.11479e+21 -198.304 133.415 
4.02e-05 4.824e-05 110.735 4.19312e+21 -208.503 174.399 
4.824e-05 4.824e-05 136.15 6.13455e+21 -216.948 216.723 
5.628e-05 4.824e-05 174.763 9.84402e+21 -224.043 260.451 
6.432e-05 4.824e-05 214.098 1.76183e+22 -229.041 305.019 
7.236e-05 4.824e-05 221.565 3.29742e+22 -229.667 350.071 
8.04e-05 4.824e-05 225.255 6.94825e+22 -243.506 382.497 
8.844e-05 4.824e-05 148.732 1.25549e+23 -245.744 417.155 
9.648e-05 4.824e-05 0 0 0 0 
-9.648e-05 5.628e-05 0 0 0 0 
-8.844e-05 5.628e-05 3.1657 1.24144e+23 -259.613 -418.948 
-8.04e-05 5.628e-05 228.143 1.06285e+23 -262.273 -395.89 
-7.236e-05 5.628e-05 221.754 5.50306e+22 -282.173 -347.793 
-6.432e-05 5.628e-05 221.251 3.09696e+22 -273.176 -312.965 
-5.628e-05 5.628e-05 211.859 1.68795e+22 -264.19 -271.35 
-4.824e-05 5.628e-05 175.022 9.82876e+21 -258.344 -223.269 
-4.02e-05 5.628e-05 140.606 6.43392e+21 -257.046 -176.568 
-3.216e-05 5.628e-05 118.561 4.73015e+21 -252.298 -134.009 
-2.412e-05 5.628e-05 105.622 3.76605e+21 -245.088 -94.088 
-1.608e-05 5.628e-05 97.6806 3.21999e+21 -241.138 -59.3679 
-8.04e-06 5.628e-05 92.6549 2.94843e+21 -237.571 -26.4021 
-6.77626e-21 5.628e-05 91.4852 2.89727e+21 -234.624 4.25273 
8.04e-06 5.628e-05 92.8106 2.99741e+21 -235.713 36.3176 
1.608e-05 5.628e-05 98.269 3.31843e+21 -237.047 67.489 
2.412e-05 5.628e-05 106.624 3.86511e+21 -244.478 102.612 
3.216e-05 5.628e-05 120.847 4.90536e+21 -251.028 140.943 
4.02e-05 5.628e-05 142.83 6.72082e+21 -259.737 180.441 
4.824e-05 5.628e-05 176.301 1.00925e+22 -266.138 221.862 
5.628e-05 5.628e-05 211.669 1.68106e+22 -271.127 265.138 
6.432e-05 5.628e-05 221.491 2.96557e+22 -272.617 309.469 
7.236e-05 5.628e-05 222.254 5.40199e+22 -277.883 350.004 
8.04e-05 5.628e-05 228.039 1.1803e+23 -287.477 377.285 
8.844e-05 5.628e-05 7.4013 1.35184e+23 -257.896 413.838 
9.648e-05 5.628e-05 0 0 0 0 
-9.648e-05 6.432e-05 0 0 0 0 
-8.844e-05 6.432e-05 0 0 0 0 
-8.04e-05 6.432e-05 54.9701 1.27585e+23 -298.185 -390.061 
-7.236e-05 6.432e-05 229.75 1.02743e+23 -298.839 -359.499 
-6.432e-05 6.432e-05 221.784 5.19123e+22 -317.526 -311.47 
-5.628e-05 6.432e-05 221.415 2.98069e+22 -309.265 -272.207 
-4.824e-05 6.432e-05 214.499 1.76597e+22 -303.77 -228.573 
-4.02e-05 6.432e-05 186.132 1.13197e+22 -302.082 -181.663 
-3.216e-05 6.432e-05 158.103 8.05614e+21 -300.554 -140.983 
-2.412e-05 6.432e-05 137.933 6.31694e+21 -295.664 -102.429 
-1.608e-05 6.432e-05 125.812 5.28825e+21 -292.148 -63.9062 
-8.04e-06 6.432e-05 119.535 4.81284e+21 -289.759 -29.2389 
-6.77626e-21 6.432e-05 118.051 4.72087e+21 -287.918 4.79747 
8.04e-06 6.432e-05 120.997 4.93697e+21 -289.235 38.6511 
1.608e-05 6.432e-05 127.914 5.50804e+21 -293.124 73.7883 
2.412e-05 6.432e-05 142.147 6.61492e+21 -297.63 109.855 
3.216e-05 6.432e-05 163.474 8.58067e+21 -303.571 147.857 
4.02e-05 6.432e-05 191.644 1.20814e+22 -308.787 186.6 
4.824e-05 6.432e-05 215.662 1.87574e+22 -312.248 229.336 
5.628e-05 6.432e-05 221.491 3.08408e+22 -313.493 273.64 
6.432e-05 6.432e-05 221.658 5.18407e+22 -311.858 317.805 
7.236e-05 6.432e-05 229.467 1.04229e+23 -321.184 340.806 
8.04e-05 6.432e-05 58.3092 1.25295e+23 -306.744 379.227 
8.844e-05 6.432e-05 0 0 0 0 
9.648e-05 6.432e-05 0 0 0 0 
-9.648e-05 7.236e-05 0 0 0 0 
-8.844e-05 7.236e-05 0 0 0 0 
-8.04e-05 7.236e-05 0 0 0 0 
-7.236e-05 7.236e-05 83.4832 1.24959e+23 -338.097 -353.371 
-6.432e-05 7.236e-05 229.519 1.04586e+23 -339.791 -321.798 
-5.628e-05 7.236e-05 221.989 5.38351e+22 -349.613 -278.395 
-4.824e-05 7.236e-05 221.345 3.32312e+22 -348.766 -229.359 
-4.02e-05 7.236e-05 220.993 2.148e+22 -348.736 -184.101 
-3.216e-05 7.236e-05 209.288 1.53964e+22 -347.981 -144.204 
-2.412e-05 7.236e-05 190.593 1.19264e+22 -344.444 -106.052 
-1.608e-05 7.236e-05 175.555 9.94441e+21 -342.776 -68.8014 
-8.04e-06 7.236e-05 167.198 8.93815e+21 -341.772 -30.5962 
-6.77626e-21 7.236e-05 165.261 8.69058e+21 -342.028 6.02968 