ITEM: TIMESTEP
100000
ITEM: NUMBER OF CELLS
625
ITEM: BOX BOUNDS pp pp pp
-0.0001005 0.0001005
-0.0001005 0.0001005
-0.0001005 0.0001005
ITEM: CELLS xc yc f_2[*] 
-9.648e-05 -9.648e-05 0 
-8.844e-05 -9.648e-05 0 
-8.04e-05 -9.648e-05 0 
-7.236e-05 -9.648e-05 0 
-6.432e-05 -9.648e-05 0 
-5.628e-05 -9.648e-05 0 
-4.824e-05 -9.648e-05 0 
-4.02e-05 -9.648e-05 290.504 
-3.216e-05 -9.648e-05 310.334 
-2.412e-05 -9.648e-05 312.647 
-1.608e-05 -9.648e-05 322.626 
-8.04e-06 -9.648e-05 324.839 
-9.648e-05 -8.844e-05 0 
-8.844e-05 -8.844e-05 0 
-8.04e-05 -8.844e-05 0 
-7.236e-05 -8.844e-05 0 
-6.432e-05 -8.844e-05 0 
-5.628e-05 -8.844e-05 290.161 
-4.824e-05 -8.844e-05 308.956 
-4.02e-05 -8.844e-05 308.265 
-3.216e-05 -8.844e-05 326.559 
-2.412e-05 -8.844e-05 327.612 
-1.608e-05 -8.844e-05 325.015 
-8.04e-06 -8.844e-05 323.992 
-9.648e-05 -8.04e-05 0 
-8.844e-05 -8.04e-05 0 
-8.04e-05 -8.04e-05 0 
-7.236e-05 -8.04e-05 0 
-6.432e-05 -8.04e-05 278.71 
-5.628e-05 -8.04e-05 305.321 
-4.824e-05 -8.04e-05 325.456 
-4.02e-05 -8.04e-05 324.224 
-3.216e-05 -8.04e-05 321.185 
-2.412e-05 -8.04e-05 318.919 
-1.608e-05 -8.04e-05 320.004 
-8.04e-06 -8.04e-05 322.48 
-9.648e-05 -7.236e-05 0 
-8.844e-05 -7.236e-05 0 
-8.04e-05 -7.236e-05 0 
-7.236e-05 -7.236e-05 285.055 
-6.432e-05 -7.236e-05 305.168 
-5.628e-05 -7.236e-05 328.578 
-4.824e-05 -7.236e-05 319.129 
-4.02e-05 -7.236e-05 318.076 
-3.216e-05 -7.236e-05 318.599 
-2.412e-05 -7.236e-05 320.304 
-1.608e-05 -7.236e-05 322.138 
-8.04e-06 -7.236e-05 323.807 
-9.648e-05 -6.432e-05 0 
-8.844e-05 -6.432e-05 0 
-8.04e-05 -6.432e-05 272.109 
-7.236e-05 -6.432e-05 303.11 
-6.432e-05 -6.432e-05 325.984 
-5.628e-05 -6.432e-05 324.884 
-4.824e-05 -6.432e-05 324.521 
-4.02e-05 -6.432e-05 324.752 
-3.216e-05 -6.432e-05 327.114 
-2.412e-05 -6.432e-05 328.949 
-1.608e-05 -6.432e-05 329.665 
-8.04e-06 -6.432e-05 330.297 
-9.648e-05 -5.628e-05 0 
-8.844e-05 -5.628e-05 295.399 
-8.04e-05 -5.628e-05 280.05 
-7.236e-05 -5.628e-05 345.607 
-6.432e-05 -5.628e-05 338.332 
-5.628e-05 -5.628e-05 335.034 
-4.824e-05 -5.628e-05 334.956 
-4.02e-05 -5.628e-05 334.634 
-3.216e-05 -5.628e-05 335.443 
-2.412e-05 -5.628e-05 332.482 
-1.608e-05 -5.628e-05 331.731 
-8.04e-06 -5.628e-05 331.145 
-9.648e-05 -4.824e-05 0 
-8.844e-05 -4.824e-05 290.714 
-8.04e-05 -4.824e-05 341.094 
-7.236e-05 -4.824e-05 339.976 
-6.432e-05 -4.824e-05 335.449 
-5.628e-05 -4.824e-05 335.088 
-4.824e-05 -4.824e-05 336.286 
-4.02e-05 -4.824e-05 335.807 
-3.216e-05 -4.824e-05 335.058 
-2.412e-05 -4.824e-05 327.893 
-1.608e-05 -4.824e-05 324.905 
-8.04e-06 -4.824e-05 323.126 
-9.648e-05 -4.02e-05 314.601 
-8.844e-05 -4.02e-05 300.456 
-8.04e-05 -4.02e-05 357.86 
-7.236e-05 -4.02e-05 338.288 
-6.432e-05 -4.02e-05 333.946 
-5.628e-05 -4.02e-05 332.615 
-4.824e-05 -4.02e-05 335.223 
-4.02e-05 -4.02e-05 333.022 
-3.216e-05 -4.02e-05 327.322 
-2.412e-05 -4.02e-05 318.902 
-1.608e-05 -4.02e-05 312.184 
-8.04e-06 -4.02e-05 304.47 
-9.648e-05 -3.216e-05 320.674 
-8.844e-05 -3.216e-05 340.691 
-8.04e-05 -3.216e-05 331.179 
-7.236e-05 -3.216e-05 326.569 
-6.432e-05 -3.216e-05 329.304 
-5.628e-05 -3.216e-05 332.69 
-4.824e-05 -3.216e-05 333.213 
-4.02e-05 -3.216e-05 326.618 
-3.216e-05 -3.216e-05 314.856 
-2.412e-05 -3.216e-05 302.106 
-1.608e-05 -3.216e-05 291.402 
-8.04e-06 -3.216e-05 281.717 
-9.648e-05 -2.412e-05 328.349 
-8.844e-05 -2.412e-05 337.243 
-8.04e-05 -2.412e-05 328.46 
-7.236e-05 -2.412e-05 325.48 
-6.432e-05 -2.412e-05 329.782 
-5.628e-05 -2.412e-05 330.759 
-4.824e-05 -2.412e-05 327.826 
-4.02e-05 -2.412e-05 319.002 
-3.216e-05 -2.412e-05 300.922 
-2.412e-05 -2.412e-05 289.013 
-1.608e-05 -2.412e-05 276.91 
-8.04e-06 -2.412e-05 266.999 
-9.648e-05 -1.608e-05 332.462 
-8.844e-05 -1.608e-05 330.286 
-8.04e-05 -1.608e-05 324.467 
-7.236e-05 -1.608e-05 324.81 
-6.432e-05 -1.608e-05 329.413 
-5.628e-05 -1.608e-05 328.824 
-4.824e-05 -1.608e-05 324.154 
-4.02e-05 -1.608e-05 308.989 
-3.216e-05 -1.608e-05 292.473 
-2.412e-05 -1.608e-05 273.94 
-1.608e-05 -1.608e-05 257.716 
-8.04e-06 -1.608e-05 257.761 
-9.648e-05 -8.04e-06 331.226 
-8.844e-05 -8.04e-06 324.815 
-8.04e-05 -8.04e-06 322.957 
-7.236e-05 -8.04e-06 325.762 
-6.432e-05 -8.04e-06 327.465 
-5.628e-05 -8.04e-06 326.28 
-4.824e-05 -8.04e-06 320.689 
-4.02e-05 -8.04e-06 303.143 
-3.216e-05 -8.04e-06 280.484 
-2.412e-05 -8.04e-06 265.413 
-1.608e-05 -8.04e-06 252.778 
-8.04e-06 -8.04e-06 248.372 
-9.648e-05 -6.77626e-21 328.024 
-8.844e-05 -6.77626e-21 322.144 
-8.04e-05 -6.77626e-21 323.54 
-7.236e-05 -6.77626e-21 326.623 
-6.432e-05 -6.77626e-21 327.542 
-5.628e-05 -6.77626e-21 328.024 
-4.824e-05 -6.77626e-21 317.541 
-4.02e-05 -6.77626e-21 304.729 
-3.216e-05 -6.77626e-21 279.722 
-2.412e-05 -6.77626e-21 263.144 
-1.608e-05 -6.77626e-21 250.719 
-8.04e-06 -6.77626e-21 245.271 
-9.648e-05 8.04e-06 323.986 
-8.844e-05 8.04e-06 323.281 
-8.04e-05 8.04e-06 323.203 
-7.236e-05 8.04e-06 324.264 
-6.432e-05 8.04e-06 329.154 
-5.628e-05 8.04e-06 329.767 
-4.824e-05 8.04e-06 321.304 
-4.02e-05 8.04e-06 304.41 
-3.216e-05 8.04e-06 283.895 
-2.412e-05 8.04e-06 264.64 
-1.608e-05 8.04e-06 253.166 
-8.04e-06 8.04e-06 247.83 
-6.77626e-21 8.04e-06 249.38 
-9.648e-05 1.608e-05 321.745 
-8.844e-05 1.608e-05 325.999 
-8.04e-05 1.608e-05 319.588 
-7.236e-05 1.608e-05 322.992 
-6.432e-05 1.608e-05 328.584 
-5.628e-05 1.608e-05 329.931 
-4.824e-05 1.608e-05 324.05 
-4.02e-05 1.608e-05 308.569 
-3.216e-05 1.608e-05 293.856 
-2.412e-05 1.608e-05 277.328 
-1.608e-05 1.608e-05 259.813 
-8.04e-06 1.608e-05 259.331 
-6.77626e-21 1.608e-05 254.272 
-9.648e-05 2.412e-05 312.776 
-8.844e-05 2.412e-05 328.254 
-8.04e-05 2.412e-05 318.842 
-7.236e-05 2.412e-05 319.761 
-6.432e-05 2.412e-05 326.289 
-5.628e-05 2.412e-05 329.539 
-4.824e-05 2.412e-05 328.324 
-4.02e-05 2.412e-05 318.19 
-3.216e-05 2.412e-05 303.394 
-2.412e-05 2.412e-05 284.794 
-1.608e-05 2.412e-05 270.208 
-8.04e-06 2.412e-05 268.331 
-6.77626e-21 2.412e-05 263.877 
-9.648e-05 3.216e-05 310.798 
-8.844e-05 3.216e-05 328.208 
-8.04e-05 3.216e-05 320.872 
-7.236e-05 3.216e-05 317.327 
-6.432e-05 3.216e-05 324.994 
-5.628e-05 3.216e-05 333.933 
-4.824e-05 3.216e-05 333.384 
-4.02e-05 3.216e-05 323.132 
-3.216e-05 3.216e-05 316.404 
-2.412e-05 3.216e-05 299.616 
-1.608e-05 3.216e-05 284.707 
-8.04e-06 3.216e-05 280.159 
-6.77626e-21 3.216e-05 282.428 
-9.648e-05 4.02e-05 293.19 
-8.844e-05 4.02e-05 307.738 
-8.04e-05 4.02e-05 323.634 
-7.236e-05 4.02e-05 316.602 
-6.432e-05 4.02e-05 324.622 
-5.628e-05 4.02e-05 332.683 
-4.824e-05 4.02e-05 334.91 
-4.02e-05 4.02e-05 333.991 
-3.216e-05 4.02e-05 322.662 
-2.412e-05 4.02e-05 313.024 
-1.608e-05 4.02e-05 306.15 
-8.04e-06 4.02e-05 301.915 
-6.77626e-21 4.02e-05 296.723 
-9.648e-05 4.824e-05 0 
-8.844e-05 4.824e-05 309.542 
-8.04e-05 4.824e-05 324.415 
-7.236e-05 4.824e-05 318.616 
-6.432e-05 4.824e-05 324.006 
-5.628e-05 4.824e-05 332.716 
-4.824e-05 4.824e-05 333.202 
-4.02e-05 4.824e-05 334.334 
-3.216e-05 4.824e-05 329.266 
-2.412e-05 4.824e-05 322.388 
-1.608e-05 4.824e-05 320.098 
-8.04e-06 4.824e-05 320.679 
-6.77626e-21 4.824e-05 315.621 
-9.648e-05 5.628e-05 0 
-8.844e-05 5.628e-05 291.382 
-8.04e-05 5.628e-05 305.438 
-7.236e-05 5.628e-05 328.477 
-6.432e-05 5.628e-05 325.208 
-5.628e-05 5.628e-05 334.179 
-4.824e-05 5.628e-05 334.108 
-4.02e-05 5.628e-05 333.134 
-3.216e-05 5.628e-05 329.214 
-2.412e-05 5.628e-05 328.904 
-1.608e-05 5.628e-05 325.025 
-8.04e-06 5.628e-05 324.884 
-6.77626e-21 5.628e-05 325.572 
-9.648e-05 6.432e-05 0 
-8.844e-05 6.432e-05 0 
-8.04e-05 6.432e-05 277.536 
-7.236e-05 6.432e-05 305.541 
-6.432e-05 6.432e-05 326.077 
-5.628e-05 6.432e-05 339.236 
-4.824e-05 6.432e-05 334.875 
-4.02e-05 6.432e-05 334.997 
-3.216e-05 6.432e-05 328.828 
-2.412e-05 6.432e-05 327.761 
-1.608e-05 6.432e-05 328.712 
-8.04e-06 6.432e-05 327.081 
-6.77626e-21 6.432e-05 325.501 
-9.648e-05 7.236e-05 0 
-8.844e-05 7.236e-05 0 
-8.04e-05 7.236e-05 0 
-7.236e-05 7.236e-05 284.786 
-6.432e-05 7.236e-05 303.396 
-5.628e-05 7.236e-05 344.826 
-4.824e-05 7.236e-05 340.821 
-4.02e-05 7.236e-05 337.847 
-3.216e-05 7.236e-05 325.535 
-2.412e-05 7.236e-05 325.428 
-1.608e-05 7.236e-05 326.109 
-8.04e-06 7.236e-05 325.035 
-6.77626e-21 7.236e-05 324.121 
-9.648e-05 8.04e-05 0 
-8.844e-05 8.04e-05 0 
-8.04e-05 8.04e-05 0 
-7.236e-05 8.04e-05 0 
-6.432e-05 8.04e-05 273.292 
-5.628e-05 8.04e-05 280.556 
-4.824e-05 8.04e-05 341.07 
-4.02e-05 8.04e-05 357.919 
-3.216e-05 8.04e-05 331.351 
-2.412e-05 8.04e-05 328.406 
-1.608e-05 8.04e-05 325.379 
-8.04e-06 8.04e-05 323.938 
-6.77626e-21 8.04e-05 322.901 
-9.648e-05 8.844e-05 0 
-8.844e-05 8.844e-05 0 
-8.04e-05 8.844e-05 0 
-7.236e-05 8.844e-05 0 
-6.432e-05 8.844e-05 0 
-5.628e-05 8.844e-05 295.348 
-4.824e-05 8.844e-05 290.619 
-4.02e-05 8.844e-05 301.475 
-3.216e-05 8.844e-05 340.354 
-2.412e-05 8.844e-05 337.482 
-1.608e-05 8.844e-05 330.869 
-8.04e-06 8.844e-05 325.667 
-6.77626e-21 8.844e-05 322.226 
-9.648e-05 9.648e-05 0 
-8.844e-05 9.648e-05 0 
-8.04e-05 9.648e-05 0 
-7.236e-05 9.648e-05 0 
-6.432e-05 9.648e-05 0 
-5.628e-05 9.648e-05 0 
-4.824e-05 9.648e-05 0 
-4.02e-05 9.648e-05 314.378 
-3.216e-05 9.648e-05 321.505 
-2.412e-05 9.648e-05 329.027 
-1.608e-05 9.648e-05 332.397 
-8.04e-06 9.648e-05 331.347 
-6.77626e-21 9.648e-05 328.179 
-6.77626e-21 -6.77626e-21 245.471 
8.04e-06 -6.77626e-21 250.188 
1.608e-05 -6.77626e-21 253.489 
2.412e-05 -6.77626e-21 260.139 
3.216e-05 -6.77626e-21 282.56 
4.02e-05 -6.77626e-21 303.607 
4.824e-05 -6.77626e-21 319.036 
5.628e-05 -6.77626e-21 324.55 
6.432e-05 -6.77626e-21 329.063 
7.236e-05 -6.77626e-21 325.85 
8.04e-05 -6.77626e-21 324.261 
8.844e-05 -6.77626e-21 321.455 
9.648e-05 -6.77626e-21 328.477 
8.04e-06 8.04e-06 247.451 
1.608e-05 8.04e-06 255.112 
2.412e-05 8.04e-06 267.589 
3.216e-05 8.04e-06 289.802 
4.02e-05 8.04e-06 302.771 
4.824e-05 8.04e-06 318.187 
5.628e-05 8.04e-06 325.6 
6.432e-05 8.04e-06 325.775 
7.236e-05 8.04e-06 325.943 
8.04e-05 8.04e-06 324.625 
8.844e-05 8.04e-06 325.469 
9.648e-05 8.04e-06 331.56 
8.04e-06 1.608e-05 251.555 
1.608e-05 1.608e-05 261.807 
2.412e-05 1.608e-05 275.372 
3.216e-05 1.608e-05 294.571 
4.02e-05 1.608e-05 310.238 
4.824e-05 1.608e-05 320.163 
5.628e-05 1.608e-05 327.434 
6.432e-05 1.608e-05 325.035 
7.236e-05 1.608e-05 326.099 
8.04e-05 1.608e-05 324.511 
8.844e-05 1.608e-05 331.045 
9.648e-05 1.608e-05 332.665 
8.04e-06 2.412e-05 268.627 
1.608e-05 2.412e-05 272.341 
2.412e-05 2.412e-05 288.879 
3.216e-05 2.412e-05 305.491 
4.02e-05 2.412e-05 316.026 
4.824e-05 2.412e-05 326.025 
5.628e-05 2.412e-05 329.772 
6.432e-05 2.412e-05 327.621 
7.236e-05 2.412e-05 327.529 
8.04e-05 2.412e-05 327.914 
8.844e-05 2.412e-05 337.754 
9.648e-05 2.412e-05 329.433 
8.04e-06 3.216e-05 285.471 
1.608e-05 3.216e-05 290.441 
2.412e-05 3.216e-05 303.383 
3.216e-05 3.216e-05 314.942 
4.02e-05 3.216e-05 325.046 
4.824e-05 3.216e-05 331.54 
5.628e-05 3.216e-05 332.172 
6.432e-05 3.216e-05 328.481 
7.236e-05 3.216e-05 328.713 
8.04e-05 3.216e-05 332.114 
8.844e-05 3.216e-05 340.876 
9.648e-05 3.216e-05 321.699 
8.04e-06 4.02e-05 301.515 
1.608e-05 4.02e-05 308.012 
2.412e-05 4.02e-05 318.145 
3.216e-05 4.02e-05 326.285 
4.02e-05 4.02e-05 332.712 
4.824e-05 4.02e-05 338.872 
5.628e-05 4.02e-05 335.552 
6.432e-05 4.02e-05 334.2 
7.236e-05 4.02e-05 337.037 
8.04e-05 4.02e-05 356.662 
8.844e-05 4.02e-05 300.798 
9.648e-05 4.02e-05 312.623 
8.04e-06 4.824e-05 319.04 
1.608e-05 4.824e-05 324.373 
2.412e-05 4.824e-05 329.057 
3.216e-05 4.824e-05 334.78 
4.02e-05 4.824e-05 335.851 
4.824e-05 4.824e-05 337.723 
5.628e-05 4.824e-05 335.284 
6.432e-05 4.824e-05 335.056 
7.236e-05 4.824e-05 339.508 
8.04e-05 4.824e-05 340.699 
8.844e-05 4.824e-05 290.619 
9.648e-05 4.824e-05 0 
8.04e-06 5.628e-05 325.506 
1.608e-05 5.628e-05 328.118 
2.412e-05 5.628e-05 330.661 
3.216e-05 5.628e-05 333.124 
4.02e-05 5.628e-05 333.91 
4.824e-05 5.628e-05 333.363 
5.628e-05 5.628e-05 334.785 
6.432e-05 5.628e-05 338.738 
7.236e-05 5.628e-05 345.245 
8.04e-05 5.628e-05 279.708 
8.844e-05 5.628e-05 299.172 
9.648e-05 5.628e-05 0 
8.04e-06 6.432e-05 326.133 
1.608e-05 6.432e-05 327.006 
2.412e-05 6.432e-05 326.077 
3.216e-05 6.432e-05 325.084 
4.02e-05 6.432e-05 324.99 
4.824e-05 6.432e-05 324.249 
5.628e-05 6.432e-05 325.037 
6.432e-05 6.432e-05 325.381 
7.236e-05 6.432e-05 304.155 
8.04e-05 6.432e-05 273.507 
8.844e-05 6.432e-05 0 
9.648e-05 6.432e-05 0 
8.04e-06 7.236e-05 323.18 
1.608e-05 7.236e-05 322.142 
2.412e-05 7.236e-05 320.554 
3.216e-05 7.236e-05 318.882 
4.02e-05 7.236e-05 316.887 
4.824e-05 7.236e-05 319.211 
5.628e-05 7.236e-05 327.796 
6.432e-05 7.236e-05 305.12 
7.236e-05 7.236e-05 285.771 
8.04e-05 7.236e-05 0 
8.844e-05 7.236e-05 0 
9.648e-05 7.236e-05 0 
8.04e-06 8.04e-05 322.435 
1.608e-05 8.04e-05 320.43 
2.412e-05 8.04e-05 318.978 
3.216e-05 8.04e-05 320.151 
4.02e-05 8.04e-05 323.301 
4.824e-05 8.04e-05 324.823 
5.628e-05 8.04e-05 303.706 
6.432e-05 8.04e-05 277.573 
7.236e-05 8.04e-05 0 
8.04e-05 8.04e-05 0 
8.844e-05 8.04e-05 0 
9.648e-05 8.04e-05 0 
8.04e-06 8.844e-05 323.788 
1.608e-05 8.844e-05 324.897 
2.412e-05 8.844e-05 327.193 
3.216e-05 8.844e-05 327.662 
4.02e-05 8.844e-05 306.945 
4.824e-05 8.844e-05 308.342 
5.628e-05 8.844e-05 293.439 
6.432e-05 8.844e-05 0 
7.236e-05 8.844e-05 0 
8.04e-05 8.844e-05 0 
8.844e-05 8.844e-05 0 
9.648e-05 8.844e-05 0 
8.04e-06 9.648e-05 324.17 
1.608e-05 9.648e-05 320.944 
2.412e-05 9.648e-05 312.259 
3.216e-05 9.648e-05 310.832 
4.02e-05 9.648e-05 291.063 
4.824e-05 9.648e-05 0 
5.628e-05 9.648e-05 0 
6.432e-05 9.648e-05 0 
7.236e-05 9.648e-05 0 
8.04e-05 9.648e-05 0 
8.844e-05 9.648e-05 0 
9.648e-05 9.648e-05 0 
-6.77626e-21 -9.648e-05 329.076 
8.04e-06 -9.648e-05 331.47 
1.608e-05 -9.648e-05 332.284 
2.412e-05 -9.648e-05 328.813 
3.216e-05 -9.648e-05 320.457 
4.02e-05 -9.648e-05 313.954 
4.824e-05 -9.648e-05 0 
5.628e-05 -9.648e-05 0 
6.432e-05 -9.648e-05 0 
7.236e-05 -9.648e-05 0 
8.04e-05 -9.648e-05 0 
8.844e-05 -9.648e-05 0 
9.648e-05 -9.648e-05 0 
-6.77626e-21 -8.844e-05 323.706 
8.04e-06 -8.844e-05 326.233 
1.608e-05 -8.844e-05 331.175 
2.412e-05 -8.844e-05 336.846 
3.216e-05 -8.844e-05 340.113 
4.02e-05 -8.844e-05 300.385 
4.824e-05 -8.844e-05 290.024 
5.628e-05 -8.844e-05 296.134 
6.432e-05 -8.844e-05 0 
7.236e-05 -8.844e-05 0 
8.04e-05 -8.844e-05 0 
8.844e-05 -8.844e-05 0 
9.648e-05 -8.844e-05 0 
-6.77626e-21 -8.04e-05 323.741 
8.04e-06 -8.04e-05 323.513 
1.608e-05 -8.04e-05 325.693 
2.412e-05 -8.04e-05 329.513 
3.216e-05 -8.04e-05 332.316 
4.02e-05 -8.04e-05 357.07 
4.824e-05 -8.04e-05 339.831 
5.628e-05 -8.04e-05 280.057 
6.432e-05 -8.04e-05 272.207 
7.236e-05 -8.04e-05 0 
8.04e-05 -8.04e-05 0 
8.844e-05 -8.04e-05 0 
9.648e-05 -8.04e-05 0 
-6.77626e-21 -7.236e-05 324.653 
8.04e-06 -7.236e-05 325.265 
1.608e-05 -7.236e-05 326.18 
2.412e-05 -7.236e-05 327.896 
3.216e-05 -7.236e-05 329.008 
4.02e-05 -7.236e-05 337.474 
4.824e-05 -7.236e-05 340.033 
5.628e-05 -7.236e-05 344.468 
6.432e-05 -7.236e-05 303.221 
7.236e-05 -7.236e-05 284.307 
8.04e-05 -7.236e-05 0 
8.844e-05 -7.236e-05 0 
9.648e-05 -7.236e-05 0 
-6.77626e-21 -6.432e-05 328.612 
8.04e-06 -6.432e-05 327.016 
1.608e-05 -6.432e-05 326.16 
2.412e-05 -6.432e-05 326.412 
3.216e-05 -6.432e-05 328.454 
4.02e-05 -6.432e-05 335.473 
4.824e-05 -6.432e-05 335.023 
5.628e-05 -6.432e-05 338.244 
6.432e-05 -6.432e-05 325.118 
7.236e-05 -6.432e-05 304.886 
8.04e-05 -6.432e-05 277.528 
8.844e-05 -6.432e-05 0 
9.648e-05 -6.432e-05 0 
-6.77626e-21 -5.628e-05 329.292 
8.04e-06 -5.628e-05 327.381 
1.608e-05 -5.628e-05 326.767 
2.412e-05 -5.628e-05 328.869 
3.216e-05 -5.628e-05 330.017 
4.02e-05 -5.628e-05 335.01 
4.824e-05 -5.628e-05 335.618 
5.628e-05 -5.628e-05 335.691 
6.432e-05 -5.628e-05 324.546 
7.236e-05 -5.628e-05 327.98 
8.04e-05 -5.628e-05 304.198 
8.844e-05 -5.628e-05 288.87 
9.648e-05 -5.628e-05 0 
-6.77626e-21 -4.824e-05 321.485 
8.04e-06 -4.824e-05 320.618 
1.608e-05 -4.824e-05 322.04 
2.412e-05 -4.824e-05 323.257 
3.216e-05 -4.824e-05 327.087 
4.02e-05 -4.824e-05 335.763 
4.824e-05 -4.824e-05 335.386 
5.628e-05 -4.824e-05 333.127 
6.432e-05 -4.824e-05 323.49 
7.236e-05 -4.824e-05 318.532 
8.04e-05 -4.824e-05 323.377 
8.844e-05 -4.824e-05 308.945 
9.648e-05 -4.824e-05 0 
-6.77626e-21 -4.02e-05 302.358 
8.04e-06 -4.02e-05 303.725 
1.608e-05 -4.02e-05 306.535 
2.412e-05 -4.02e-05 317.61 
3.216e-05 -4.02e-05 321.868 
4.02e-05 -4.02e-05 332.172 
4.824e-05 -4.02e-05 336.004 
5.628e-05 -4.02e-05 335.18 
6.432e-05 -4.02e-05 325.337 
7.236e-05 -4.02e-05 316.327 
8.04e-05 -4.02e-05 322.261 
8.844e-05 -4.02e-05 307.471 
9.648e-05 -4.02e-05 291.829 
-6.77626e-21 -3.216e-05 279.798 
8.04e-06 -3.216e-05 285.3 
1.608e-05 -3.216e-05 289.785 
2.412e-05 -3.216e-05 299.71 
3.216e-05 -3.216e-05 311.601 
4.02e-05 -3.216e-05 326.246 
4.824e-05 -3.216e-05 334.476 
5.628e-05 -3.216e-05 334.857 
6.432e-05 -3.216e-05 326.347 
7.236e-05 -3.216e-05 316.619 
8.04e-05 -3.216e-05 318.965 
8.844e-05 -3.216e-05 327.218 
9.648e-05 -3.216e-05 310.48 
-6.77626e-21 -2.412e-05 261.892 
8.04e-06 -2.412e-05 266.919 
1.608e-05 -2.412e-05 273.795 
2.412e-05 -2.412e-05 286.035 
3.216e-05 -2.412e-05 301.53 
4.02e-05 -2.412e-05 316.641 
4.824e-05 -2.412e-05 331.253 
5.628e-05 -2.412e-05 336.053 
6.432e-05 -2.412e-05 329.151 
7.236e-05 -2.412e-05 318.812 
8.04e-05 -2.412e-05 317.203 
8.844e-05 -2.412e-05 328.093 
9.648e-05 -2.412e-05 311.331 
-6.77626e-21 -1.608e-05 249.615 
8.04e-06 -1.608e-05 253.24 
1.608e-05 -1.608e-05 259.984 
2.412e-05 -1.608e-05 275.48 
3.216e-05 -1.608e-05 290.558 
4.02e-05 -1.608e-05 307.412 
4.824e-05 -1.608e-05 325.378 
5.628e-05 -1.608e-05 332.47 
6.432e-05 -1.608e-05 329.949 
7.236e-05 -1.608e-05 320.71 
8.04e-05 -1.608e-05 318.853 
8.844e-05 -1.608e-05 325.455 
9.648e-05 -1.608e-05 321.236 
-6.77626e-21 -8.04e-06 248.276 
8.04e-06 -8.04e-06 252.609 
1.608e-05 -8.04e-06 250.476 
2.412e-05 -8.04e-06 269.282 
3.216e-05 -8.04e-06 286.831 
4.02e-05 -8.04e-06 303.009 
4.824e-05 -8.04e-06 320.819 
5.628e-05 -8.04e-06 327.304 
6.432e-05 -8.04e-06 329.661 
7.236e-05 -8.04e-06 324.1 
8.04e-05 -8.04e-06 321.878 
8.844e-05 -8.04e-06 323.242 
9.648e-05 -8.04e-06 323.867 
