ITEM: TIMESTEP
100000
ITEM: NUMBER OF CELLS
625
ITEM: BOX BOUNDS pp pp pp
-0.0001005 0.0001005
-0.0001005 0.0001005
-0.0001005 0.0001005
ITEM: CELLS xc yc f_2[*] 
-9.648e-05 -9.648e-05 0 
-8.844e-05 -9.648e-05 0 
-8.04e-05 -9.648e-05 0 
-7.236e-05 -9.648e-05 0 
-6.432e-05 -9.648e-05 0 
-5.628e-05 -9.648e-05 0 
-4.824e-05 -9.648e-05 0 
-4.02e-05 -9.648e-05 294.926 
-3.216e-05 -9.648e-05 310.957 
-2.412e-05 -9.648e-05 317.352 
-1.608e-05 -9.648e-05 319.198 
-8.04e-06 -9.648e-05 320.385 
-6.77626e-21 -9.648e-05 322.319 
8.04e-06 -9.648e-05 323.476 
1.608e-05 -9.648e-05 324.327 
2.412e-05 -9.648e-05 321.704 
3.216e-05 -9.648e-05 315.224 
4.02e-05 -9.648e-05 315.37 
4.824e-05 -9.648e-05 0 
5.628e-05 -9.648e-05 0 
6.432e-05 -9.648e-05 0 
7.236e-05 -9.648e-05 0 
8.04e-05 -9.648e-05 0 
8.844e-05 -9.648e-05 0 
9.648e-05 -9.648e-05 0 
-9.648e-05 -8.844e-05 0 
-8.844e-05 -8.844e-05 0 
-8.04e-05 -8.844e-05 0 
-7.236e-05 -8.844e-05 0 
-6.432e-05 -8.844e-05 0 
-5.628e-05 -8.844e-05 297.242 
-4.824e-05 -8.844e-05 310.029 
-4.02e-05 -8.844e-05 311.946 
-3.216e-05 -8.844e-05 322.835 
-2.412e-05 -8.844e-05 320.317 
-1.608e-05 -8.844e-05 318.794 
-8.04e-06 -8.844e-05 317.802 
-6.77626e-21 -8.844e-05 317.6 
8.04e-06 -8.844e-05 320.346 
1.608e-05 -8.844e-05 323.444 
2.412e-05 -8.844e-05 328.729 
3.216e-05 -8.844e-05 330.724 
4.02e-05 -8.844e-05 305.812 
4.824e-05 -8.844e-05 292.12 
5.628e-05 -8.844e-05 297.273 
6.432e-05 -8.844e-05 0 
7.236e-05 -8.844e-05 0 
8.04e-05 -8.844e-05 0 
8.844e-05 -8.844e-05 0 
9.648e-05 -8.844e-05 0 
-9.648e-05 -8.04e-05 0 
-8.844e-05 -8.04e-05 0 
-8.04e-05 -8.04e-05 0 
-7.236e-05 -8.04e-05 0 
-6.432e-05 -8.04e-05 288.064 
-5.628e-05 -8.04e-05 309.578 
-4.824e-05 -8.04e-05 322.55 
-4.02e-05 -8.04e-05 320.201 
-3.216e-05 -8.04e-05 318.166 
-2.412e-05 -8.04e-05 316.384 
-1.608e-05 -8.04e-05 316.796 
-8.04e-06 -8.04e-05 318.953 
-6.77626e-21 -8.04e-05 320.26 
8.04e-06 -8.04e-05 320.421 
1.608e-05 -8.04e-05 320.129 
2.412e-05 -8.04e-05 322.221 
3.216e-05 -8.04e-05 324.742 
4.02e-05 -8.04e-05 347.631 
4.824e-05 -8.04e-05 330.36 
5.628e-05 -8.04e-05 298.911 
6.432e-05 -8.04e-05 292.782 
7.236e-05 -8.04e-05 0 
8.04e-05 -8.04e-05 0 
8.844e-05 -8.04e-05 0 
9.648e-05 -8.04e-05 0 
-9.648e-05 -7.236e-05 0 
-8.844e-05 -7.236e-05 0 
-8.04e-05 -7.236e-05 0 
-7.236e-05 -7.236e-05 289.557 
-6.432e-05 -7.236e-05 312.771 
-5.628e-05 -7.236e-05 325.912 
-4.824e-05 -7.236e-05 318.736 
-4.02e-05 -7.236e-05 316.473 
-3.216e-05 -7.236e-05 320.467 
-2.412e-05 -7.236e-05 323.668 
-1.608e-05 -7.236e-05 325.03 
-8.04e-06 -7.236e-05 327.021 
-6.77626e-21 -7.236e-05 327.804 
8.04e-06 -7.236e-05 327.795 
1.608e-05 -7.236e-05 328.485 
2.412e-05 -7.236e-05 327.195 
3.216e-05 -7.236e-05 325.79 
4.02e-05 -7.236e-05 331.226 
4.824e-05 -7.236e-05 335.761 
5.628e-05 -7.236e-05 330.572 
6.432e-05 -7.236e-05 309.564 
7.236e-05 -7.236e-05 290.567 
8.04e-05 -7.236e-05 0 
8.844e-05 -7.236e-05 0 
9.648e-05 -7.236e-05 0 
-9.648e-05 -6.432e-05 0 
-8.844e-05 -6.432e-05 0 
-8.04e-05 -6.432e-05 292.398 
-7.236e-05 -6.432e-05 310.047 
-6.432e-05 -6.432e-05 324.699 
-5.628e-05 -6.432e-05 321.561 
-4.824e-05 -6.432e-05 321.457 
-4.02e-05 -6.432e-05 328.707 
-3.216e-05 -6.432e-05 332.47 
-2.412e-05 -6.432e-05 334.826 
-1.608e-05 -6.432e-05 335.027 
-8.04e-06 -6.432e-05 335.743 
-6.77626e-21 -6.432e-05 334.702 
8.04e-06 -6.432e-05 336.871 
1.608e-05 -6.432e-05 337.2 
2.412e-05 -6.432e-05 336.047 
3.216e-05 -6.432e-05 334.366 
4.02e-05 -6.432e-05 334.008 
4.824e-05 -6.432e-05 332.847 
5.628e-05 -6.432e-05 329.059 
6.432e-05 -6.432e-05 323.545 
7.236e-05 -6.432e-05 312.672 
8.04e-05 -6.432e-05 287.862 
8.844e-05 -6.432e-05 0 
9.648e-05 -6.432e-05 0 
-9.648e-05 -5.628e-05 0 
-8.844e-05 -5.628e-05 297.029 
-8.04e-05 -5.628e-05 299.884 
-7.236e-05 -5.628e-05 331.042 
-6.432e-05 -5.628e-05 328.963 
-5.628e-05 -5.628e-05 329.931 
-4.824e-05 -5.628e-05 337.004 
-4.02e-05 -5.628e-05 341.451 
-3.216e-05 -5.628e-05 342.429 
-2.412e-05 -5.628e-05 342.252 
-1.608e-05 -5.628e-05 340.986 
-8.04e-06 -5.628e-05 339.383 
-6.77626e-21 -5.628e-05 339.559 
8.04e-06 -5.628e-05 339.921 
1.608e-05 -5.628e-05 339.75 
2.412e-05 -5.628e-05 341.168 
3.216e-05 -5.628e-05 343.415 
4.02e-05 -5.628e-05 341.64 
4.824e-05 -5.628e-05 339.514 
5.628e-05 -5.628e-05 329.601 
6.432e-05 -5.628e-05 322.411 
7.236e-05 -5.628e-05 325.553 
8.04e-05 -5.628e-05 309.638 
8.844e-05 -5.628e-05 298.481 
9.648e-05 -5.628e-05 0 
-9.648e-05 -4.824e-05 0 
-8.844e-05 -4.824e-05 292.776 
-8.04e-05 -4.824e-05 331.027 
-7.236e-05 -4.824e-05 335.235 
-6.432e-05 -4.824e-05 334.601 
-5.628e-05 -4.824e-05 341.083 
-4.824e-05 -4.824e-05 344.5 
-4.02e-05 -4.824e-05 346.552 
-3.216e-05 -4.824e-05 346.531 
-2.412e-05 -4.824e-05 344.822 
-1.608e-05 -4.824e-05 342.773 
-8.04e-06 -4.824e-05 334.754 
-6.77626e-21 -4.824e-05 333.079 
8.04e-06 -4.824e-05 337.154 
1.608e-05 -4.824e-05 337.497 
2.412e-05 -4.824e-05 344.583 
3.216e-05 -4.824e-05 346.775 
4.02e-05 -4.824e-05 345.692 
4.824e-05 -4.824e-05 345.225 
5.628e-05 -4.824e-05 335.928 
6.432e-05 -4.824e-05 322.61 
7.236e-05 -4.824e-05 317.928 
8.04e-05 -4.824e-05 322.784 
8.844e-05 -4.824e-05 310.05 
9.648e-05 -4.824e-05 0 
-9.648e-05 -4.02e-05 313.48 
-8.844e-05 -4.02e-05 306.263 
-8.04e-05 -4.02e-05 346.942 
-7.236e-05 -4.02e-05 330.823 
-6.432e-05 -4.02e-05 333.92 
-5.628e-05 -4.02e-05 341.153 
-4.824e-05 -4.02e-05 344.05 
-4.02e-05 -4.02e-05 348.204 
-3.216e-05 -4.02e-05 339.607 
-2.412e-05 -4.02e-05 335.515 
-1.608e-05 -4.02e-05 328.903 
-8.04e-06 -4.02e-05 320.675 
-6.77626e-21 -4.02e-05 321.434 
8.04e-06 -4.02e-05 322.11 
1.608e-05 -4.02e-05 326.982 
2.412e-05 -4.02e-05 330.705 
3.216e-05 -4.02e-05 341.323 
4.02e-05 -4.02e-05 346.601 
4.824e-05 -4.02e-05 346.091 
5.628e-05 -4.02e-05 340.372 
6.432e-05 -4.02e-05 328.221 
7.236e-05 -4.02e-05 316.617 
8.04e-05 -4.02e-05 319.523 
8.844e-05 -4.02e-05 312.129 
9.648e-05 -4.02e-05 292.769 
-9.648e-05 -3.216e-05 314.732 
-8.844e-05 -3.216e-05 329.873 
-8.04e-05 -3.216e-05 323.321 
-7.236e-05 -3.216e-05 325.406 
-6.432e-05 -3.216e-05 332.904 
-5.628e-05 -3.216e-05 338.795 
-4.824e-05 -3.216e-05 346.126 
-4.02e-05 -3.216e-05 342.128 
-3.216e-05 -3.216e-05 333.478 
-2.412e-05 -3.216e-05 321.1 
-1.608e-05 -3.216e-05 314.299 
-8.04e-06 -3.216e-05 310.198 
-6.77626e-21 -3.216e-05 304.429 
8.04e-06 -3.216e-05 301.384 
1.608e-05 -3.216e-05 305.639 
2.412e-05 -3.216e-05 318.815 
3.216e-05 -3.216e-05 330.299 
4.02e-05 -3.216e-05 339.841 
4.824e-05 -3.216e-05 346.529 
5.628e-05 -3.216e-05 343.835 
6.432e-05 -3.216e-05 332.242 
7.236e-05 -3.216e-05 320.452 
8.04e-05 -3.216e-05 317.425 
8.844e-05 -3.216e-05 322.707 
9.648e-05 -3.216e-05 311.583 
-9.648e-05 -2.412e-05 321.653 
-8.844e-05 -2.412e-05 328.052 
-8.04e-05 -2.412e-05 322.136 
-7.236e-05 -2.412e-05 326.865 
-6.432e-05 -2.412e-05 335.322 
-5.628e-05 -2.412e-05 342.721 
-4.824e-05 -2.412e-05 344.559 
-4.02e-05 -2.412e-05 334.08 
-3.216e-05 -2.412e-05 322.073 
-2.412e-05 -2.412e-05 309.254 
-1.608e-05 -2.412e-05 299.562 
-8.04e-06 -2.412e-05 291.194 
-6.77626e-21 -2.412e-05 284.654 
8.04e-06 -2.412e-05 286.615 
1.608e-05 -2.412e-05 295.116 
2.412e-05 -2.412e-05 306.864 
3.216e-05 -2.412e-05 316.01 
4.02e-05 -2.412e-05 334.941 
4.824e-05 -2.412e-05 342.613 
5.628e-05 -2.412e-05 346.801 
6.432e-05 -2.412e-05 335.975 
7.236e-05 -2.412e-05 325.98 
8.04e-05 -2.412e-05 315.818 
8.844e-05 -2.412e-05 319.826 
9.648e-05 -2.412e-05 318.212 
-9.648e-05 -1.608e-05 324.137 
-8.844e-05 -1.608e-05 323.269 
-8.04e-05 -1.608e-05 321.302 
-7.236e-05 -1.608e-05 328.631 
-6.432e-05 -1.608e-05 336.974 
-5.628e-05 -1.608e-05 343.083 
-4.824e-05 -1.608e-05 342.161 
-4.02e-05 -1.608e-05 324.874 
-3.216e-05 -1.608e-05 313.657 
-2.412e-05 -1.608e-05 296.192 
-1.608e-05 -1.608e-05 286.317 
-8.04e-06 -1.608e-05 277.226 
-6.77626e-21 -1.608e-05 271.444 
8.04e-06 -1.608e-05 272.782 
1.608e-05 -1.608e-05 279.764 
2.412e-05 -1.608e-05 295.064 
3.216e-05 -1.608e-05 312.872 
4.02e-05 -1.608e-05 326.005 
4.824e-05 -1.608e-05 340.236 
5.628e-05 -1.608e-05 344.113 
6.432e-05 -1.608e-05 338.349 
7.236e-05 -1.608e-05 328.241 
8.04e-05 -1.608e-05 317.001 
8.844e-05 -1.608e-05 318.824 
9.648e-05 -1.608e-05 320.319 
-9.648e-05 -8.04e-06 323.819 
-8.844e-05 -8.04e-06 319.636 
-8.04e-05 -8.04e-06 320.724 
-7.236e-05 -8.04e-06 328.469 
-6.432e-05 -8.04e-06 340.055 
-5.628e-05 -8.04e-06 342.505 
-4.824e-05 -8.04e-06 338.61 
-4.02e-05 -8.04e-06 320.423 
-3.216e-05 -8.04e-06 310.453 
-2.412e-05 -8.04e-06 287.76 
-1.608e-05 -8.04e-06 278.393 
-8.04e-06 -8.04e-06 268.374 
-6.77626e-21 -8.04e-06 265.995 
8.04e-06 -8.04e-06 269.571 
1.608e-05 -8.04e-06 268.345 
2.412e-05 -8.04e-06 289.042 
3.216e-05 -8.04e-06 304.221 
4.02e-05 -8.04e-06 318.521 
4.824e-05 -8.04e-06 336.172 
5.628e-05 -8.04e-06 342.74 
6.432e-05 -8.04e-06 338.556 
7.236e-05 -8.04e-06 328.071 
8.04e-05 -8.04e-06 319.359 
8.844e-05 -8.04e-06 318.425 
9.648e-05 -8.04e-06 321.936 
-9.648e-05 -6.77626e-21 322.514 
-8.844e-05 -6.77626e-21 318.582 
-8.04e-05 -6.77626e-21 320.847 
-7.236e-05 -6.77626e-21 328.544 
-6.432e-05 -6.77626e-21 340.023 
-5.628e-05 -6.77626e-21 341.608 
-4.824e-05 -6.77626e-21 334.184 
-4.02e-05 -6.77626e-21 321.59 
-3.216e-05 -6.77626e-21 305.084 
-2.412e-05 -6.77626e-21 281.627 
-1.608e-05 -6.77626e-21 275.84 
-8.04e-06 -6.77626e-21 267.563 
-6.77626e-21 -6.77626e-21 261.301 
8.04e-06 -6.77626e-21 266.774 
1.608e-05 -6.77626e-21 271.923 
2.412e-05 -6.77626e-21 282.363 
3.216e-05 -6.77626e-21 297.791 
4.02e-05 -6.77626e-21 323.095 
4.824e-05 -6.77626e-21 336.955 
5.628e-05 -6.77626e-21 341.626 
6.432e-05 -6.77626e-21 338.318 
7.236e-05 -6.77626e-21 328.432 
8.04e-05 -6.77626e-21 321.852 
8.844e-05 -6.77626e-21 318.078 
9.648e-05 -6.77626e-21 323.721 
-9.648e-05 8.04e-06 320.947 
-8.844e-05 8.04e-06 318.603 
-8.04e-05 8.04e-06 319.491 
-7.236e-05 8.04e-06 328.659 
-6.432e-05 8.04e-06 338.616 
-5.628e-05 8.04e-06 343.779 
-4.824e-05 8.04e-06 337.398 
-4.02e-05 8.04e-06 323.817 
-3.216e-05 8.04e-06 304.321 
-2.412e-05 8.04e-06 283.465 
-1.608e-05 8.04e-06 276.728 
-8.04e-06 8.04e-06 267.759 
-6.77626e-21 8.04e-06 265.358 
8.04e-06 8.04e-06 269.181 
1.608e-05 8.04e-06 274.753 
2.412e-05 8.04e-06 287.85 
3.216e-05 8.04e-06 300.942 
4.02e-05 8.04e-06 319.992 
4.824e-05 8.04e-06 335.679 
5.628e-05 8.04e-06 341.526 
6.432e-05 8.04e-06 337.21 
7.236e-05 8.04e-06 328.733 
8.04e-05 8.04e-06 321.237 
8.844e-05 8.04e-06 320.314 
9.648e-05 8.04e-06 325.069 
-9.648e-05 1.608e-05 319.752 
-8.844e-05 1.608e-05 319.181 
-8.04e-05 1.608e-05 316.356 
-7.236e-05 1.608e-05 328.791 
-6.432e-05 1.608e-05 339.669 
-5.628e-05 1.608e-05 344.663 
-4.824e-05 1.608e-05 344.08 
-4.02e-05 1.608e-05 329.878 
-3.216e-05 1.608e-05 308.937 
-2.412e-05 1.608e-05 293.443 
-1.608e-05 1.608e-05 284.202 
-8.04e-06 1.608e-05 277.336 
-6.77626e-21 1.608e-05 272.201 
8.04e-06 1.608e-05 269.153 
1.608e-05 1.608e-05 282.691 
2.412e-05 1.608e-05 292.468 
3.216e-05 1.608e-05 307.36 
4.02e-05 1.608e-05 326.419 
4.824e-05 1.608e-05 334.528 
5.628e-05 1.608e-05 341.729 
6.432e-05 1.608e-05 337.856 
7.236e-05 1.608e-05 328.964 
8.04e-05 1.608e-05 322.152 
8.844e-05 1.608e-05 324.062 
9.648e-05 1.608e-05 324.645 
-9.648e-05 2.412e-05 317.73 
-8.844e-05 2.412e-05 320.575 
-8.04e-05 2.412e-05 315.234 
-7.236e-05 2.412e-05 325.103 
-6.432e-05 2.412e-05 336.967 
-5.628e-05 2.412e-05 347.451 
-4.824e-05 2.412e-05 345.357 
-4.02e-05 2.412e-05 334.45 
-3.216e-05 2.412e-05 322.47 
-2.412e-05 2.412e-05 305.786 
-1.608e-05 2.412e-05 296.845 
-8.04e-06 2.412e-05 288.671 
-6.77626e-21 2.412e-05 281.617 
8.04e-06 2.412e-05 288.669 
1.608e-05 2.412e-05 300.632 
2.412e-05 2.412e-05 305.685 
3.216e-05 2.412e-05 316.939 
4.02e-05 2.412e-05 335.684 
4.824e-05 2.412e-05 339.302 
5.628e-05 2.412e-05 341.724 
6.432e-05 2.412e-05 336.302 
7.236e-05 2.412e-05 329.043 
8.04e-05 2.412e-05 323.489 
8.844e-05 2.412e-05 327.877 
9.648e-05 2.412e-05 322.186 
-9.648e-05 3.216e-05 311.694 
-8.844e-05 3.216e-05 323.856 
-8.04e-05 3.216e-05 316.295 
-7.236e-05 3.216e-05 319.243 
-6.432e-05 3.216e-05 334.051 
-5.628e-05 3.216e-05 343.712 
-4.824e-05 3.216e-05 347.416 
-4.02e-05 3.216e-05 343.384 
-3.216e-05 3.216e-05 333.216 
-2.412e-05 3.216e-05 321.682 
-1.608e-05 3.216e-05 309.505 
-8.04e-06 3.216e-05 304.605 
-6.77626e-21 3.216e-05 306.521 
8.04e-06 3.216e-05 308.821 
1.608e-05 3.216e-05 310.048 
2.412e-05 3.216e-05 319.139 
3.216e-05 3.216e-05 331.73 
4.02e-05 3.216e-05 338.59 
4.824e-05 3.216e-05 342.086 
5.628e-05 3.216e-05 340.866 
6.432e-05 3.216e-05 335.704 
7.236e-05 3.216e-05 325.764 
8.04e-05 3.216e-05 325.621 
8.844e-05 3.216e-05 329.45 
9.648e-05 3.216e-05 315.279 
-9.648e-05 4.02e-05 298.497 
-8.844e-05 4.02e-05 312.451 
-8.04e-05 4.02e-05 318.635 
-7.236e-05 4.02e-05 316.443 
-6.432e-05 4.02e-05 328.977 
-5.628e-05 4.02e-05 341.459 
-4.824e-05 4.02e-05 349.393 
-4.02e-05 4.02e-05 346.43 
-3.216e-05 4.02e-05 342.383 
-2.412e-05 4.02e-05 332.419 
-1.608e-05 4.02e-05 325.436 
-8.04e-06 4.02e-05 323.492 
-6.77626e-21 4.02e-05 325.388 
8.04e-06 4.02e-05 324.046 
1.608e-05 4.02e-05 328.225 
2.412e-05 4.02e-05 335.118 
3.216e-05 4.02e-05 338.496 
4.02e-05 4.02e-05 342.315 
4.824e-05 4.02e-05 342.802 
5.628e-05 4.02e-05 341.282 
6.432e-05 4.02e-05 336.824 
7.236e-05 4.02e-05 330.881 
8.04e-05 4.02e-05 347.27 
8.844e-05 4.02e-05 305.671 
9.648e-05 4.02e-05 312.615 
-9.648e-05 4.824e-05 0 
-8.844e-05 4.824e-05 310.209 
-8.04e-05 4.824e-05 322.17 
-7.236e-05 4.824e-05 316.642 
-6.432e-05 4.824e-05 323.278 
-5.628e-05 4.824e-05 338.057 
-4.824e-05 4.824e-05 345.072 
-4.02e-05 4.824e-05 346.551 
-3.216e-05 4.824e-05 344.516 
-2.412e-05 4.824e-05 342.33 
-1.608e-05 4.824e-05 337.898 
-8.04e-06 4.824e-05 337.772 
-6.77626e-21 4.824e-05 335.97 
8.04e-06 4.824e-05 340.298 
1.608e-05 4.824e-05 340.817 
2.412e-05 4.824e-05 342.255 
3.216e-05 4.824e-05 343.966 
4.02e-05 4.824e-05 344.261 
4.824e-05 4.824e-05 344.524 
5.628e-05 4.824e-05 341.509 
6.432e-05 4.824e-05 334.662 
7.236e-05 4.824e-05 335.279 
8.04e-05 4.824e-05 330.755 
8.844e-05 4.824e-05 292.293 
9.648e-05 4.824e-05 0 
-9.648e-05 5.628e-05 0 
-8.844e-05 5.628e-05 297.954 
-8.04e-05 5.628e-05 309.032 
-7.236e-05 5.628e-05 325.681 
-6.432e-05 5.628e-05 320.99 
-5.628e-05 5.628e-05 330.245 
-4.824e-05 5.628e-05 340.157 
-4.02e-05 5.628e-05 340.869 
-3.216e-05 5.628e-05 342.338 
-2.412e-05 5.628e-05 341.252 
-1.608e-05 5.628e-05 340.753 
-8.04e-06 5.628e-05 340.993 
-6.77626e-21 5.628e-05 338.874 
8.04e-06 5.628e-05 339.824 
1.608e-05 5.628e-05 342.65 
2.412e-05 5.628e-05 342.476 
3.216e-05 5.628e-05 342.94 
4.02e-05 5.628e-05 341.397 
4.824e-05 5.628e-05 337.618 
5.628e-05 5.628e-05 331.366 
6.432e-05 5.628e-05 329.503 
7.236e-05 5.628e-05 330.951 
8.04e-05 5.628e-05 298.634 
8.844e-05 5.628e-05 295.724 
9.648e-05 5.628e-05 0 
-9.648e-05 6.432e-05 0 
-8.844e-05 6.432e-05 0 
-8.04e-05 6.432e-05 287.454 
-7.236e-05 6.432e-05 312.731 
-6.432e-05 6.432e-05 323.921 
-5.628e-05 6.432e-05 328.964 
-4.824e-05 6.432e-05 334.532 
-4.02e-05 6.432e-05 335.258 
-3.216e-05 6.432e-05 332.768 
-2.412e-05 6.432e-05 336.807 
-1.608e-05 6.432e-05 336.563 
-8.04e-06 6.432e-05 336.891 
-6.77626e-21 6.432e-05 337.775 
8.04e-06 6.432e-05 336.978 
1.608e-05 6.432e-05 337.492 
2.412e-05 6.432e-05 335.709 
3.216e-05 6.432e-05 332.026 
4.02e-05 6.432e-05 328.79 
4.824e-05 6.432e-05 323.624 
5.628e-05 6.432e-05 321.552 
6.432e-05 6.432e-05 324.179 
7.236e-05 6.432e-05 309.537 
8.04e-05 6.432e-05 291.526 
8.844e-05 6.432e-05 0 
9.648e-05 6.432e-05 0 
-9.648e-05 7.236e-05 0 
-8.844e-05 7.236e-05 0 
-8.04e-05 7.236e-05 0 
-7.236e-05 7.236e-05 288.618 
-6.432e-05 7.236e-05 309.943 
-5.628e-05 7.236e-05 330.556 
-4.824e-05 7.236e-05 335.287 
-4.02e-05 7.236e-05 330.764 
-3.216e-05 7.236e-05 325.962 
-2.412e-05 7.236e-05 327.255 
-1.608e-05 7.236e-05 328.819 
-8.04e-06 7.236e-05 329.433 
-6.77626e-21 7.236e-05 328.76 
8.04e-06 7.236e-05 329.605 
1.608e-05 7.236e-05 328.068 
2.412e-05 7.236e-05 324.883 
3.216e-05 7.236e-05 319.137 
4.02e-05 7.236e-05 315.743 
4.824e-05 7.236e-05 318.122 
5.628e-05 7.236e-05 325.153 
6.432e-05 7.236e-05 313.355 
7.236e-05 7.236e-05 289.372 
8.04e-05 7.236e-05 0 
8.844e-05 7.236e-05 0 
9.648e-05 7.236e-05 0 
-9.648e-05 8.04e-05 0 
-8.844e-05 8.04e-05 0 
-8.04e-05 8.04e-05 0 
-7.236e-05 8.04e-05 0 
-6.432e-05 8.04e-05 292.215 
-5.628e-05 8.04e-05 298.609 
-4.824e-05 8.04e-05 330.855 
-4.02e-05 8.04e-05 347.914 
-3.216e-05 8.04e-05 323.793 
-2.412e-05 8.04e-05 322.844 
-1.608e-05 8.04e-05 321.285 
-8.04e-06 8.04e-05 321.331 
-6.77626e-21 8.04e-05 320.734 
8.04e-06 8.04e-05 319.442 
1.608e-05 8.04e-05 316.588 
2.412e-05 8.04e-05 314.277 
3.216e-05 8.04e-05 315.93 
4.02e-05 8.04e-05 318.778 
4.824e-05 8.04e-05 322.214 
5.628e-05 8.04e-05 308.905 
6.432e-05 8.04e-05 287.882 
7.236e-05 8.04e-05 0 
8.04e-05 8.04e-05 0 
8.844e-05 8.04e-05 0 
9.648e-05 8.04e-05 0 
-9.648e-05 8.844e-05 0 
-8.844e-05 8.844e-05 0 
-8.04e-05 8.844e-05 0 
-7.236e-05 8.844e-05 0 
-6.432e-05 8.844e-05 0 
-5.628e-05 8.844e-05 295.561 
-4.824e-05 8.844e-05 292.094 
-4.02e-05 8.844e-05 305.413 
-3.216e-05 8.844e-05 329.778 
-2.412e-05 8.844e-05 328.253 
-1.608e-05 8.844e-05 323.912 
-8.04e-06 8.844e-05 320.03 
-6.77626e-21 8.844e-05 318.301 
8.04e-06 8.844e-05 318.054 
1.608e-05 8.844e-05 319.279 
2.412e-05 8.844e-05 320.476 
3.216e-05 8.844e-05 322.603 
4.02e-05 8.844e-05 311.18 
4.824e-05 8.844e-05 310.262 
5.628e-05 8.844e-05 298.425 
6.432e-05 8.844e-05 0 
7.236e-05 8.844e-05 0 
8.04e-05 8.844e-05 0 
8.844e-05 8.844e-05 0 
9.648e-05 8.844e-05 0 
-9.648e-05 9.648e-05 0 
-8.844e-05 9.648e-05 0 
-8.04e-05 9.648e-05 0 
-7.236e-05 9.648e-05 0 
-6.432e-05 9.648e-05 0 
-5.628e-05 9.648e-05 0 
-4.824e-05 9.648e-05 0 
-4.02e-05 9.648e-05 312.588 
-3.216e-05 9.648e-05 315.497 
-2.412e-05 9.648e-05 322.227 
-1.608e-05 9.648e-05 323.869 
-8.04e-06 9.648e-05 324.053 
-6.77626e-21 9.648e-05 322.487 
8.04e-06 9.648e-05 321.475 
1.608e-05 9.648e-05 319.71 
2.412e-05 9.648e-05 317.05 
3.216e-05 9.648e-05 310.945 
4.02e-05 9.648e-05 296.81 
4.824e-05 9.648e-05 0 
5.628e-05 9.648e-05 0 
6.432e-05 9.648e-05 0 
7.236e-05 9.648e-05 0 
8.04e-05 9.648e-05 0 
8.844e-05 9.648e-05 0 
9.648e-05 9.648e-05 0 
