ITEM: TIMESTEP
100000
ITEM: NUMBER OF CELLS
625
ITEM: BOX BOUNDS pp pp pp
-0.0001005 0.0001005
-0.0001005 0.0001005
-0.0001005 0.0001005
ITEM: CELLS xc yc f_3[1] f_3[2] f_3[3] 
-9.648e-05 -9.648e-05 0 0 0 
-8.844e-05 -9.648e-05 0 0 0 
-8.04e-05 -9.648e-05 0 0 0 
-7.236e-05 -9.648e-05 0 0 0 
-6.432e-05 -9.648e-05 0 0 0 
-5.628e-05 -9.648e-05 0 0 0 
-4.824e-05 -9.648e-05 0 0 0 
-4.02e-05 -9.648e-05 510.418 492.472 -17.8746 
-3.216e-05 -9.648e-05 459.035 454.271 6.08399 
-2.412e-05 -9.648e-05 467.595 478.408 7.76748 
-1.608e-05 -9.648e-05 410.528 422.754 7.89866 
-8.04e-06 -9.648e-05 399.921 416.027 7.72568 
-6.77626e-21 -9.648e-05 391.819 410.473 5.40142 
8.04e-06 -9.648e-05 404.862 429.446 3.11627 
1.608e-05 -9.648e-05 429.592 458.876 0.45358 
2.412e-05 -9.648e-05 477.647 506.842 -2.36517 
3.216e-05 -9.648e-05 552.93 576.683 1.68408 
4.02e-05 -9.648e-05 652.757 683.572 23.2349 
4.824e-05 -9.648e-05 0 0 0 
5.628e-05 -9.648e-05 0 0 0 
6.432e-05 -9.648e-05 0 0 0 
7.236e-05 -9.648e-05 0 0 0 
8.04e-05 -9.648e-05 0 0 0 
8.844e-05 -9.648e-05 0 0 0 
9.648e-05 -9.648e-05 0 0 0 
-9.648e-05 -8.844e-05 0 0 0 
-8.844e-05 -8.844e-05 0 0 0 
-8.04e-05 -8.844e-05 0 0 0 
-7.236e-05 -8.844e-05 0 0 0 
-6.432e-05 -8.844e-05 0 0 0 
-5.628e-05 -8.844e-05 513.727 504.921 -8.25572 
-4.824e-05 -8.844e-05 451.93 446.185 4.38966 
-4.02e-05 -8.844e-05 494.909 504.071 1.19032 
-3.216e-05 -8.844e-05 318.084 318.948 12.9664 
-2.412e-05 -8.844e-05 262.588 258.24 0.943522 
-1.608e-05 -8.844e-05 215.61 209.806 -0.0804399 
-8.04e-06 -8.844e-05 192.703 186.216 0.131792 
-6.77626e-21 -8.844e-05 180.948 174.508 1.66789 
8.04e-06 -8.844e-05 185.623 178.342 1.63804 
1.608e-05 -8.844e-05 200.444 199.492 1.91643 
2.412e-05 -8.844e-05 244.865 249.898 0.631111 
3.216e-05 -8.844e-05 337.165 352.746 -4.167 
4.02e-05 -8.844e-05 588.111 573.984 -5.43535 
4.824e-05 -8.844e-05 498.824 494.846 29.8415 
5.628e-05 -8.844e-05 554.058 549.488 16.0185 
6.432e-05 -8.844e-05 0 0 0 
7.236e-05 -8.844e-05 0 0 0 
8.04e-05 -8.844e-05 0 0 0 
8.844e-05 -8.844e-05 0 0 0 
9.648e-05 -8.844e-05 0 0 0 
-9.648e-05 -8.04e-05 0 0 0 
-8.844e-05 -8.04e-05 0 0 0 
-8.04e-05 -8.04e-05 0 0 0 
-7.236e-05 -8.04e-05 0 0 0 
-6.432e-05 -8.04e-05 506.84 495.573 -26.5883 
-5.628e-05 -8.04e-05 466.085 456.995 0.690544 
-4.824e-05 -8.04e-05 312.345 304.992 8.77778 
-4.02e-05 -8.04e-05 218.255 210.824 -2.42791 
-3.216e-05 -8.04e-05 159.994 149.441 -4.33584 
-2.412e-05 -8.04e-05 123.819 110.021 -2.86206 
-1.608e-05 -8.04e-05 102.665 88.3211 -1.67134 
-8.04e-06 -8.04e-05 90.9183 77.7816 -0.914412 
-6.77626e-21 -8.04e-05 86.2077 74.4897 0.726225 
8.04e-06 -8.04e-05 88.2331 77.4817 1.46612 
1.608e-05 -8.04e-05 96.642 86.1184 2.6656 
2.412e-05 -8.04e-05 114.51 104.549 3.59707 
3.216e-05 -8.04e-05 140.912 132.723 4.35862 
4.02e-05 -8.04e-05 198.008 207.157 -8.46017 
4.824e-05 -8.04e-05 302.729 342.472 2.50291 
5.628e-05 -8.04e-05 483.919 481.026 14.5008 
6.432e-05 -8.04e-05 501.32 496.009 24.6935 
7.236e-05 -8.04e-05 0 0 0 
8.04e-05 -8.04e-05 0 0 0 
8.844e-05 -8.04e-05 0 0 0 
9.648e-05 -8.04e-05 0 0 0 
-9.648e-05 -7.236e-05 0 0 0 
-8.844e-05 -7.236e-05 0 0 0 
-8.04e-05 -7.236e-05 0 0 0 
-7.236e-05 -7.236e-05 490.915 488.999 -23.5316 
-6.432e-05 -7.236e-05 451.067 445.373 2.42366 
-5.628e-05 -7.236e-05 252.685 246.553 2.92011 
-4.824e-05 -7.236e-05 164.456 152.299 -5.57253 
-4.02e-05 -7.236e-05 111.831 97.3548 -5.46613 
-3.216e-05 -7.236e-05 81.7295 67.7545 -4.56785 
-2.412e-05 -7.236e-05 63.7366 51.3423 -2.95432 
-1.608e-05 -7.236e-05 53.4198 41.6145 -1.38074 
-8.04e-06 -7.236e-05 48.1833 37.0529 -0.246813 
-6.77626e-21 -7.236e-05 46.2754 35.3453 1.1198 
8.04e-06 -7.236e-05 46.6466 36.9415 2.09973 
1.608e-05 -7.236e-05 50.9762 42.0994 2.83587 
2.412e-05 -7.236e-05 59.0154 51.3222 3.7269 
3.216e-05 -7.236e-05 73.9005 67.8885 4.28117 
4.02e-05 -7.236e-05 103.472 97.5841 2.26614 
4.824e-05 -7.236e-05 153.308 159.6 0.857541 
5.628e-05 -7.236e-05 239.808 261.082 -2.47075 
6.432e-05 -7.236e-05 447.314 452.877 3.54437 
7.236e-05 -7.236e-05 490.391 491.351 23.1039 
8.04e-05 -7.236e-05 0 0 0 
8.844e-05 -7.236e-05 0 0 0 
9.648e-05 -7.236e-05 0 0 0 
-9.648e-05 -6.432e-05 0 0 0 
-8.844e-05 -6.432e-05 0 0 0 
-8.04e-05 -6.432e-05 495.759 501.141 -24.5404 
-7.236e-05 -6.432e-05 452.124 447.535 -3.72815 
-6.432e-05 -6.432e-05 240.134 228.522 -0.866013 
-5.628e-05 -6.432e-05 143.521 131.763 -4.99984 
-4.824e-05 -6.432e-05 89.286 78.6831 -4.98994 
-4.02e-05 -6.432e-05 61.3003 50.7549 -3.84834 
-3.216e-05 -6.432e-05 45.9924 35.4001 -2.66004 
-2.412e-05 -6.432e-05 36.7889 26.6177 -1.74025 
-1.608e-05 -6.432e-05 31.0979 21.8893 -0.784622 
-8.04e-06 -6.432e-05 28.3288 19.3229 0.0699435 
-6.77626e-21 -6.432e-05 27.1655 18.6097 0.909901 
8.04e-06 -6.432e-05 27.577 19.51 1.87954 
1.608e-05 -6.432e-05 29.3627 22.498 2.55735 
2.412e-05 -6.432e-05 33.2716 27.847 3.43367 
3.216e-05 -6.432e-05 40.4711 36.8593 3.65546 
4.02e-05 -6.432e-05 55.6264 52.6822 3.19027 
4.824e-05 -6.432e-05 82.2086 84.072 2.71294 
5.628e-05 -6.432e-05 132.072 140.435 3.18095 
6.432e-05 -6.432e-05 228.742 239.53 0.973805 
7.236e-05 -6.432e-05 446.134 452.014 -2.84727 
8.04e-05 -6.432e-05 498.122 504.035 24.7978 
8.844e-05 -6.432e-05 0 0 0 
9.648e-05 -6.432e-05 0 0 0 
-9.648e-05 -5.628e-05 0 0 0 
-8.844e-05 -5.628e-05 543.762 559.564 -18.0664 
-8.04e-05 -5.628e-05 482.856 483.743 -15.4115 
-7.236e-05 -5.628e-05 263.259 241.23 2.29123 
-6.432e-05 -5.628e-05 141.125 133.515 -2.9598 
-5.628e-05 -5.628e-05 81.5533 74.7325 -3.63243 
-4.824e-05 -5.628e-05 51.6056 45.2504 -3.26917 
-4.02e-05 -5.628e-05 36.2555 30.0005 -2.61563 
-3.216e-05 -5.628e-05 27.5713 20.9847 -1.93161 
-2.412e-05 -5.628e-05 22.4397 15.7618 -1.13419 
-1.608e-05 -5.628e-05 19.9027 12.8546 -0.664604 
-8.04e-06 -5.628e-05 18.003 11.3629 -0.0369995 
-6.77626e-21 -5.628e-05 17.0376 11.1573 0.922338 
8.04e-06 -5.628e-05 17.4044 11.742 1.41695 
1.608e-05 -5.628e-05 18.2653 13.3017 2.12729 
2.412e-05 -5.628e-05 20.4776 16.5761 2.92669 
3.216e-05 -5.628e-05 24.9503 22.1751 3.40515 
4.02e-05 -5.628e-05 32.7209 31.5839 3.2408 
4.824e-05 -5.628e-05 47.1371 49.0724 3.16138 
5.628e-05 -5.628e-05 75.0893 81.5254 4.28117 
6.432e-05 -5.628e-05 132.281 143.844 5.46689 
7.236e-05 -5.628e-05 247.11 253.159 -3.17876 
8.04e-05 -5.628e-05 455.555 465.09 -1.12001 
8.844e-05 -5.628e-05 507.063 513.732 14.5441 
9.648e-05 -5.628e-05 0 0 0 
-9.648e-05 -4.824e-05 0 0 0 
-8.844e-05 -4.824e-05 494.984 498.174 -30.462 
-8.04e-05 -4.824e-05 344.668 303.484 -3.11578 
-7.236e-05 -4.824e-05 159.891 153.782 -0.400086 
-6.432e-05 -4.824e-05 84.8955 83.1262 -2.41237 
-5.628e-05 -4.824e-05 49.2169 46.9683 -2.64703 
-4.824e-05 -4.824e-05 31.826 29.2006 -2.95381 
-4.02e-05 -4.824e-05 22.7424 19.6288 -2.40202 
-3.216e-05 -4.824e-05 17.646 13.8832 -1.73836 
-2.412e-05 -4.824e-05 14.6808 10.5184 -1.2352 
-1.608e-05 -4.824e-05 12.956 8.63922 -0.579534 
-8.04e-06 -4.824e-05 11.7776 7.52757 -0.0727526 
-6.77626e-21 -4.824e-05 11.4206 7.23257 0.59988 
8.04e-06 -4.824e-05 11.4744 7.9196 1.14229 
1.608e-05 -4.824e-05 12.1339 8.81471 1.66667 
2.412e-05 -4.824e-05 13.6022 10.8366 2.31522 
3.216e-05 -4.824e-05 16.1335 14.5473 2.69802 
4.02e-05 -4.824e-05 20.6584 20.8481 2.84104 
4.824e-05 -4.824e-05 29.4248 31.7614 3.09505 
5.628e-05 -4.824e-05 45.3332 50.9969 3.48377 
6.432e-05 -4.824e-05 78.9844 89.5936 4.65395 
7.236e-05 -4.824e-05 152.656 164.052 5.54805 
8.04e-05 -4.824e-05 304.548 314.656 -8.08778 
8.844e-05 -4.824e-05 445.549 451.36 -4.45782 
9.648e-05 -4.824e-05 0 0 0 
-9.648e-05 -4.02e-05 679.673 649.964 -18.416 
-8.844e-05 -4.02e-05 574.146 584.458 5.98032 
-8.04e-05 -4.02e-05 207.104 197.249 8.31177 
-7.236e-05 -4.02e-05 97.9556 102.903 -2.5043 
-6.432e-05 -4.02e-05 51.9689 55.2364 -3.3981 
-5.628e-05 -4.02e-05 31.0437 32.9303 -3.35431 
-4.824e-05 -4.02e-05 20.335 20.8308 -2.84194 
-4.02e-05 -4.02e-05 15.0617 14.2033 -2.28696 
-3.216e-05 -4.02e-05 11.9258 10.0676 -1.53204 
-2.412e-05 -4.02e-05 9.98343 7.69741 -0.974204 
-1.608e-05 -4.02e-05 8.89248 6.38524 -0.435465 
-8.04e-06 -4.02e-05 8.19593 5.53297 -0.0514179 
-6.77626e-21 -4.02e-05 8.02388 5.31852 0.323883 
8.04e-06 -4.02e-05 8.09605 5.58905 0.821252 
1.608e-05 -4.02e-05 8.63676 6.51642 1.32193 
2.412e-05 -4.02e-05 9.22782 7.76561 1.59737 
3.216e-05 -4.02e-05 10.8863 10.4756 2.01874 
4.02e-05 -4.02e-05 14.0373 15.0852 2.29125 
4.824e-05 -4.02e-05 19.4268 22.9183 2.58918 
5.628e-05 -4.02e-05 29.3261 35.9915 2.82363 
6.432e-05 -4.02e-05 50.8078 61.1459 3.63657 
7.236e-05 -4.02e-05 98.0042 111.884 5.49412 
8.04e-05 -4.02e-05 210.083 218.218 3.24694 
8.844e-05 -4.02e-05 499.561 492.292 -2.78982 
9.648e-05 -4.02e-05 493.888 497.571 14.2644 
-9.648e-05 -3.216e-05 576.239 553.789 -4.06557 
-8.844e-05 -3.216e-05 350.827 334.941 3.10317 
-8.04e-05 -3.216e-05 132.386 140.04 -5.39676 
-7.236e-05 -3.216e-05 67.661 73.8964 -4.27731 
-6.432e-05 -3.216e-05 36.1185 40.9602 -3.73369 
-5.628e-05 -3.216e-05 21.5849 24.9718 -3.1486 
-4.824e-05 -3.216e-05 14.4646 16.2587 -2.65873 
-4.02e-05 -3.216e-05 10.7682 11.1499 -2.05455 
-3.216e-05 -3.216e-05 8.59262 8.10521 -1.45929 
-2.412e-05 -3.216e-05 7.18221 6.10903 -0.970929 
-1.608e-05 -3.216e-05 6.33264 4.9675 -0.486788 
-8.04e-06 -3.216e-05 5.85349 4.44278 -0.12814 
-6.77626e-21 -3.216e-05 5.64539 4.19297 0.262292 
8.04e-06 -3.216e-05 5.65771 4.47519 0.596992 
1.608e-05 -3.216e-05 5.89421 5.00667 0.879739 
2.412e-05 -3.216e-05 6.75469 6.41712 1.26827 
3.216e-05 -3.216e-05 7.89562 8.32762 1.39511 
4.02e-05 -3.216e-05 10.0513 12.0123 1.56337 
4.824e-05 -3.216e-05 13.7729 17.9115 1.83613 
5.628e-05 -3.216e-05 20.86 27.9367 2.15261 
6.432e-05 -3.216e-05 35.4876 45.6651 2.37335 
7.236e-05 -3.216e-05 67.903 81.9333 4.23093 
8.04e-05 -3.216e-05 149.882 160.164 4.51041 
8.844e-05 -3.216e-05 316.867 317.349 -12.1195 
9.648e-05 -3.216e-05 453.534 459.692 -3.81524 
-9.648e-05 -2.412e-05 504.98 476.997 2.20509 
-8.844e-05 -2.412e-05 250.038 244.59 -1.01911 
-8.04e-05 -2.412e-05 104.598 113.964 -3.85987 
-7.236e-05 -2.412e-05 51.183 59.1384 -3.38906 
-6.432e-05 -2.412e-05 27.5204 33.7241 -3.17493 
-5.628e-05 -2.412e-05 16.6077 21.15 -2.89742 
-4.824e-05 -2.412e-05 11.1287 13.7459 -2.37399 
-4.02e-05 -2.412e-05 8.09775 9.57157 -1.75211 
-3.216e-05 -2.412e-05 6.43596 6.89759 -1.11528 
-2.412e-05 -2.412e-05 5.49371 5.25775 -0.684672 
-1.608e-05 -2.412e-05 4.8572 4.23703 -0.364803 
-8.04e-06 -2.412e-05 4.51708 3.81293 -0.112564 
-6.77626e-21 -2.412e-05 4.32225 3.55009 0.128052 
8.04e-06 -2.412e-05 4.4715 3.79202 0.371053 
1.608e-05 -2.412e-05 4.71837 4.21821 0.573449 
2.412e-05 -2.412e-05 5.26671 5.45845 0.736522 
3.216e-05 -2.412e-05 6.14826 7.0371 0.908856 
4.02e-05 -2.412e-05 7.72176 10.0527 1.06597 
4.824e-05 -2.412e-05 10.3266 14.6693 1.25699 
5.628e-05 -2.412e-05 15.8952 23.264 1.53163 
6.432e-05 -2.412e-05 26.9928 37.274 1.79665 
7.236e-05 -2.412e-05 51.5823 64.6795 3.07825 
8.04e-05 -2.412e-05 110.97 124.056 4.14146 
8.844e-05 -2.412e-05 257.372 262.42 -0.817848 
9.648e-05 -2.412e-05 477.213 463.58 -6.12959 
-9.648e-05 -1.608e-05 459.388 429.441 0.194666 
-8.844e-05 -1.608e-05 199.697 201.978 -2.33794 
-8.04e-05 -1.608e-05 85.4363 96.8678 -3.45461 
-7.236e-05 -1.608e-05 42.0917 51.2743 -2.64964 
-6.432e-05 -1.608e-05 22.8105 29.7423 -2.47662 
-5.628e-05 -1.608e-05 13.4661 18.6637 -2.242 
-4.824e-05 -1.608e-05 9.0471 12.4498 -1.79636 
-4.02e-05 -1.608e-05 6.57104 8.45046 -1.29123 
-3.216e-05 -1.608e-05 5.1877 6.292 -0.81892 
-2.412e-05 -1.608e-05 4.34969 4.71185 -0.506921 
-1.608e-05 -1.608e-05 3.88835 3.77324 -0.260959 
-8.04e-06 -1.608e-05 3.62313 3.41684 -0.0061893 
-6.77626e-21 -1.608e-05 3.60359 3.30556 0.0838069 
8.04e-06 -1.608e-05 3.63193 3.36437 0.18464 
1.608e-05 -1.608e-05 3.84049 3.86507 0.268121 
2.412e-05 -1.608e-05 4.3286 4.86878 0.387846 
3.216e-05 -1.608e-05 5.05998 6.26299 0.461189 
4.02e-05 -1.608e-05 6.16818 8.72557 0.551675 
4.824e-05 -1.608e-05 8.39913 12.9168 0.51646 
5.628e-05 -1.608e-05 13.0104 19.9888 0.6252 
6.432e-05 -1.608e-05 22.3153 31.9571 0.746915 
7.236e-05 -1.608e-05 42.3506 54.5765 1.37433 
8.04e-05 -1.608e-05 88.403 102.522 2.19947 
8.844e-05 -1.608e-05 210.862 217.234 -0.452925 
9.648e-05 -1.608e-05 424.205 410.524 -6.84159 
-9.648e-05 -8.04e-06 430.622 406.085 -3.69668 
-8.844e-05 -8.04e-06 178.876 184.804 -2.29305 
-8.04e-05 -8.04e-06 76.7453 87.3911 -1.89594 
-7.236e-05 -8.04e-06 37.3223 47.3527 -1.72136 
-6.432e-05 -8.04e-06 20.1071 28.2558 -1.87195 
-5.628e-05 -8.04e-06 11.9055 17.7048 -1.63494 
-4.824e-05 -8.04e-06 7.85955 11.7289 -1.25524 
-4.02e-05 -8.04e-06 5.61937 7.99799 -0.87876 
-3.216e-05 -8.04e-06 4.60328 5.9203 -0.562027 
-2.412e-05 -8.04e-06 3.92495 4.45073 -0.26477 
-1.608e-05 -8.04e-06 3.5407 3.6328 -0.102088 
-8.04e-06 -8.04e-06 3.32162 3.20707 -0.0316398 
-6.77626e-21 -8.04e-06 3.29277 3.18712 0.0473829 
8.04e-06 -8.04e-06 3.30315 3.18796 0.0701 
1.608e-05 -8.04e-06 3.43976 3.57833 0.11431 
2.412e-05 -8.04e-06 3.78237 4.5337 0.0941247 
3.216e-05 -8.04e-06 4.42676 5.80822 0.123991 
4.02e-05 -8.04e-06 5.3941 7.98477 0.122863 
4.824e-05 -8.04e-06 7.65823 12.01 -0.00694035 
5.628e-05 -8.04e-06 11.5289 18.2031 -0.049598 
6.432e-05 -8.04e-06 19.7176 28.9346 -0.0864941 
7.236e-05 -8.04e-06 37.2138 48.5403 0.183169 
8.04e-05 -8.04e-06 77.7716 90.3375 1.24476 
8.844e-05 -8.04e-06 187.5 194.572 -0.280869 
9.648e-05 -8.04e-06 415.886 401.497 -8.86035 
-9.648e-05 -6.77626e-21 410.984 392.111 -6.02351 
-8.844e-05 -6.77626e-21 175.692 182.201 -1.20847 
-8.04e-05 -6.77626e-21 74.5462 86.2347 -0.131612 
-7.236e-05 -6.77626e-21 35.3593 46.4083 -0.76323 
-6.432e-05 -6.77626e-21 18.9929 27.7889 -1.16353 
-5.628e-05 -6.77626e-21 11.1495 17.8541 -0.939049 
-4.824e-05 -6.77626e-21 7.31004 11.3493 -0.733269 
-4.02e-05 -6.77626e-21 5.4367 7.93342 -0.490372 
-3.216e-05 -6.77626e-21 4.28913 5.75285 -0.258846 
-2.412e-05 -6.77626e-21 3.68078 4.37283 -0.0929575 
-1.608e-05 -6.77626e-21 3.35321 3.59781 -0.0137971 
-8.04e-06 -6.77626e-21 3.23341 3.22192 0.00572091 
-6.77626e-21 -6.77626e-21 3.12917 3.06506 0.0230344 
8.04e-06 -6.77626e-21 3.23265 3.17223 0.0188411 
1.608e-05 -6.77626e-21 3.3787 3.57594 -0.0230535 
2.412e-05 -6.77626e-21 3.62874 4.34198 -0.141934 
3.216e-05 -6.77626e-21 4.23856 5.5083 -0.159426 
4.02e-05 -6.77626e-21 5.52475 7.81842 -0.340334 
4.824e-05 -6.77626e-21 7.43449 11.773 -0.590252 
5.628e-05 -6.77626e-21 11.2536 17.5955 -0.859384 
6.432e-05 -6.77626e-21 19.0206 27.9361 -1.06278 
7.236e-05 -6.77626e-21 35.5145 46.243 -0.858779 
8.04e-05 -6.77626e-21 74.8563 86.4995 -0.455154 
8.844e-05 -6.77626e-21 175.171 182.168 -1.94619 
9.648e-05 -6.77626e-21 412.586 394.318 -6.61075 
-9.648e-05 8.04e-06 415.713 399.853 -9.23099 
-8.844e-05 8.04e-06 187.521 193.763 -0.145334 
-8.04e-05 8.04e-06 78.1051 90.6776 1.47615 
-7.236e-05 8.04e-06 36.7851 48.4192 0.0641289 
-6.432e-05 8.04e-06 19.2293 28.9193 -0.102219 
-5.628e-05 8.04e-06 11.4418 18.6375 -0.0438466 
-4.824e-05 8.04e-06 7.66799 11.9776 -0.154692 
-4.02e-05 8.04e-06 5.73717 8.28965 -0.00890248 
-3.216e-05 8.04e-06 4.41962 5.85819 0.0914373 
-2.412e-05 8.04e-06 3.77735 4.47454 0.0807648 
-1.608e-05 8.04e-06 3.48167 3.72981 0.0776596 
-8.04e-06 8.04e-06 3.3164 3.2743 0.0738014 
-6.77626e-21 8.04e-06 3.33549 3.13914 0.0587157 
8.04e-06 8.04e-06 3.37145 3.1913 -0.00796053 
1.608e-05 8.04e-06 3.59803 3.65469 -0.141048 
2.412e-05 8.04e-06 3.87577 4.43762 -0.230145 
3.216e-05 8.04e-06 4.51338 5.63577 -0.561398 
4.02e-05 8.04e-06 5.64432 7.83224 -0.883607 
4.824e-05 8.04e-06 7.947 11.778 -1.1472 
5.628e-05 8.04e-06 11.8493 17.8969 -1.5565 
6.432e-05 8.04e-06 19.938 27.8216 -1.77715 
7.236e-05 8.04e-06 37.1293 46.7501 -1.68403 
8.04e-05 8.04e-06 76.9296 88.1343 -1.79723 
8.844e-05 8.04e-06 180.321 185.089 -2.2927 
9.648e-05 8.04e-06 432.564 408.539 -3.86326 
-9.648e-05 1.608e-05 423.864 409.959 -7.20827 
-8.844e-05 1.608e-05 211.104 216.559 -0.193384 
-8.04e-05 1.608e-05 88.8862 101.946 2.47947 
-7.236e-05 1.608e-05 42.199 54.2129 1.36695 
-6.432e-05 1.608e-05 21.7457 32.1558 0.958044 
-5.628e-05 1.608e-05 12.9852 20.3033 0.561555 
-4.824e-05 1.608e-05 8.61286 12.9651 0.453029 
-4.02e-05 1.608e-05 6.19228 8.79248 0.424163 
-3.216e-05 1.608e-05 5.05247 6.38925 0.464598 
-2.412e-05 1.608e-05 4.31044 4.77043 0.416312 
-1.608e-05 1.608e-05 3.89621 3.98324 0.243338 
-8.04e-06 1.608e-05 3.65539 3.48709 0.156142 
-6.77626e-21 1.608e-05 3.55518 3.21444 0.116791 
8.04e-06 1.608e-05 3.6212 3.34087 -0.00967525 
1.608e-05 1.608e-05 3.84194 3.82614 -0.209936 
2.412e-05 1.608e-05 4.38127 4.74411 -0.501266 
3.216e-05 1.608e-05 5.10393 5.97418 -0.807023 
4.02e-05 1.608e-05 6.44555 8.40674 -1.31143 
4.824e-05 1.608e-05 8.93976 12.1783 -1.73561 
5.628e-05 1.608e-05 13.6826 18.8171 -2.14571 
6.432e-05 1.608e-05 22.6355 29.9225 -2.50493 
7.236e-05 1.608e-05 41.9966 50.8099 -2.67127 
8.04e-05 1.608e-05 86.591 97.4447 -2.6103 
8.844e-05 1.608e-05 201.332 203.04 -2.09339 
9.648e-05 1.608e-05 460.299 430.837 -0.406982 
-9.648e-05 2.412e-05 476.926 463.184 -7.43574 
-8.844e-05 2.412e-05 257.83 263.124 -0.132683 
-8.04e-05 2.412e-05 110.415 122.842 3.83535 
-7.236e-05 2.412e-05 51.3824 64.0446 2.82918 
-6.432e-05 2.412e-05 26.788 36.8585 1.59272 
-5.628e-05 2.412e-05 16.0796 23.1562 1.31168 
-4.824e-05 2.412e-05 10.3485 14.7842 1.195 
-4.02e-05 2.412e-05 7.43372 9.83146 1.05963 
-3.216e-05 2.412e-05 5.95257 7.1594 0.883031 
-2.412e-05 2.412e-05 5.06785 5.43513 0.709051 
-1.608e-05 2.412e-05 4.61759 4.38692 0.563104 
-8.04e-06 2.412e-05 4.37365 3.83502 0.396226 
-6.77626e-21 2.412e-05 4.25009 3.44717 0.119992 
8.04e-06 2.412e-05 4.4554 3.82303 -0.0528543 
1.608e-05 2.412e-05 4.85307 4.17024 -0.377748 
2.412e-05 2.412e-05 5.55325 5.2722 -0.674882 
3.216e-05 2.412e-05 6.49369 6.67291 -1.07109 
4.02e-05 2.412e-05 8.28662 9.35189 -1.69249 
4.824e-05 2.412e-05 11.2287 13.7965 -2.23937 
5.628e-05 2.412e-05 16.711 21.1622 -2.73637 
6.432e-05 2.412e-05 27.9603 33.9597 -2.95563 
7.236e-05 2.412e-05 51.4512 59.6279 -3.05895 
8.04e-05 2.412e-05 104.825 115.206 -3.17624 
8.844e-05 2.412e-05 249.936 244.984 -1.0724 
9.648e-05 2.412e-05 505.637 478.629 1.51806 
-9.648e-05 3.216e-05 453.7 458.321 -5.85518 
-8.844e-05 3.216e-05 320.267 319.722 -11.5313 
-8.04e-05 3.216e-05 148.414 158.696 4.8986 
-7.236e-05 3.216e-05 67.1435 81.4177 4.10687 
-6.432e-05 3.216e-05 35.5114 45.773 2.15628 
-5.628e-05 3.216e-05 20.914 28.1398 1.90659 
-4.824e-05 3.216e-05 13.592 17.7922 1.89191 
-4.02e-05 3.216e-05 9.97963 11.7776 1.57212 
-3.216e-05 3.216e-05 7.88593 8.49548 1.45772 
-2.412e-05 3.216e-05 6.71636 6.31805 1.12101 
-1.608e-05 3.216e-05 6.05784 5.15097 0.855923 
-8.04e-06 3.216e-05 5.76001 4.51368 0.648943 
-6.77626e-21 3.216e-05 5.75611 4.16058 0.199808 
8.04e-06 3.216e-05 5.84438 4.43151 -0.128266 
1.608e-05 3.216e-05 6.26202 4.90257 -0.471659 
2.412e-05 3.216e-05 7.15202 6.04059 -0.835495 
3.216e-05 3.216e-05 8.55915 8.02387 -1.47489 
4.02e-05 3.216e-05 10.7002 11.0463 -2.06962 
4.824e-05 3.216e-05 14.7338 16.4927 -2.79284 
5.628e-05 3.216e-05 22.0051 25.51 -3.20314 
6.432e-05 3.216e-05 36.6769 41.2369 -3.52124 
7.236e-05 3.216e-05 67.5622 73.7858 -3.95413 
8.04e-05 3.216e-05 132.507 141.46 -4.20985 
8.844e-05 3.216e-05 351.763 336.584 4.06151 
9.648e-05 3.216e-05 575.155 553.773 -2.12496 
-9.648e-05 4.02e-05 501.846 511.018 16.1666 
-8.844e-05 4.02e-05 504.805 495.764 -0.896613 
-8.04e-05 4.02e-05 208.996 216.941 2.91842 
-7.236e-05 4.02e-05 97.4554 111.886 5.3076 
-6.432e-05 4.02e-05 50.565 61.6988 3.12507 
-5.628e-05 4.02e-05 30.0325 36.5941 2.60805 
-4.824e-05 4.02e-05 19.4119 22.8608 2.40752 
-4.02e-05 4.02e-05 14.1742 15.0407 2.20714 
-3.216e-05 4.02e-05 11.2148 10.8107 2.05417 
-2.412e-05 4.02e-05 9.39927 7.98268 1.67896 
-1.608e-05 4.02e-05 8.48511 6.42181 1.18234 
-8.04e-06 4.02e-05 8.16585 5.70529 0.797393 
-6.77626e-21 4.02e-05 8.14354 5.36492 0.441633 
8.04e-06 4.02e-05 8.49945 5.57459 -0.0870666 
1.608e-05 4.02e-05 9.05107 6.19403 -0.517413 
2.412e-05 4.02e-05 10.1063 7.65521 -1.04958 
3.216e-05 4.02e-05 12.0442 10.1411 -1.63703 
4.02e-05 4.02e-05 15.0861 14.1885 -2.37729 
4.824e-05 4.02e-05 20.647 20.8321 -2.83605 
5.628e-05 4.02e-05 31.3132 33.1801 -3.5515 
6.432e-05 4.02e-05 52.7046 56.1702 -3.89872 
7.236e-05 4.02e-05 97.2159 102.735 -2.75572 
8.04e-05 4.02e-05 206.273 195.864 8.08458 
8.844e-05 4.02e-05 571.587 585.52 4.66673 
9.648e-05 4.02e-05 664.826 645.568 -16.7965 
-9.648e-05 4.824e-05 0 0 0 
-8.844e-05 4.824e-05 446.976 453.069 -3.71457 
-8.04e-05 4.824e-05 302.726 312.253 -8.6461 
-7.236e-05 4.824e-05 152.333 163.739 4.96515 
-6.432e-05 4.824e-05 79.0695 90.3051 4.70974 
-5.628e-05 4.824e-05 45.1269 52.1501 3.38685 
-4.824e-05 4.824e-05 29.3066 31.8917 3.01579 
-4.02e-05 4.824e-05 20.7518 20.4759 2.82243 
-3.216e-05 4.824e-05 16.1257 14.6407 2.72643 
-2.412e-05 4.824e-05 13.8101 11.0128 2.28669 
-1.608e-05 4.824e-05 12.3385 8.90041 1.67182 
-8.04e-06 4.824e-05 11.7507 7.83509 1.14233 
-6.77626e-21 4.824e-05 11.4687 7.34386 0.561314 
8.04e-06 4.824e-05 11.8929 7.53704 0.136884 
1.608e-05 4.824e-05 12.8453 8.51694 -0.543408 
2.412e-05 4.824e-05 14.7042 10.4133 -1.21164 
3.216e-05 4.824e-05 17.7346 13.7256 -1.72031 
4.02e-05 4.824e-05 22.7231 19.5176 -2.29495 
4.824e-05 4.824e-05 31.9774 29.3641 -2.82512 
5.628e-05 4.824e-05 49.0768 47.4126 -2.97337 
6.432e-05 4.824e-05 84.1472 82.332 -2.59812 
7.236e-05 4.824e-05 158.467 152.073 0.641358 
8.04e-05 4.824e-05 343.782 304.839 -1.99709 
8.844e-05 4.824e-05 497.184 500.518 -29.0688 
9.648e-05 4.824e-05 0 0 0 
-9.648e-05 5.628e-05 0 0 0 
-8.844e-05 5.628e-05 499.078 513.272 8.96393 
-8.04e-05 5.628e-05 450.089 461.165 -1.33706 
-7.236e-05 5.628e-05 247.696 253.485 -2.74579 
-6.432e-05 5.628e-05 132.002 144.439 5.06416 
-5.628e-05 5.628e-05 75.0532 81.7851 3.86421 
-4.824e-05 5.628e-05 47.1079 48.7625 3.11471 
-4.02e-05 5.628e-05 32.1844 30.937 3.33788 
-3.216e-05 5.628e-05 24.8135 22.1617 3.27685 
-2.412e-05 5.628e-05 20.9063 16.6255 2.84411 
-1.608e-05 5.628e-05 18.5729 13.3676 2.15624 
-8.04e-06 5.628e-05 17.45 11.8125 1.49637 
-6.77626e-21 5.628e-05 17.5421 10.9949 0.715933 
8.04e-06 5.628e-05 18.1911 11.484 0.21922 
1.608e-05 5.628e-05 20.1303 13.0567 -0.463144 
2.412e-05 5.628e-05 22.6118 15.9035 -1.24574 
3.216e-05 5.628e-05 27.82 20.9786 -1.91659 
4.02e-05 5.628e-05 36.1546 29.8865 -2.66705 
4.824e-05 5.628e-05 51.9852 45.315 -3.20284 
5.628e-05 5.628e-05 81.6827 75.0581 -3.72467 
6.432e-05 5.628e-05 140.673 132.784 -2.7647 
7.236e-05 5.628e-05 262.166 241.471 3.06568 
8.04e-05 5.628e-05 481.819 485.665 -14.483 
8.844e-05 5.628e-05 548.614 552.76 -19.1348 
9.648e-05 5.628e-05 0 0 0 
-9.648e-05 6.432e-05 0 0 0 
-8.844e-05 6.432e-05 0 0 0 
-8.04e-05 6.432e-05 490.805 499.836 28.4819 
-7.236e-05 6.432e-05 446.188 451.312 -1.56811 
-6.432e-05 6.432e-05 228.625 239.887 0.74682 
-5.628e-05 6.432e-05 133.062 141.407 3.04657 
-4.824e-05 6.432e-05 83.1028 84.2377 2.90587 
-4.02e-05 6.432e-05 55.869 52.4111 4.00533 
-3.216e-05 6.432e-05 40.3832 36.0981 3.84139 
-2.412e-05 6.432e-05 33.3568 27.6042 3.20846 
-1.608e-05 6.432e-05 28.8981 22.3588 2.48291 
-8.04e-06 6.432e-05 27.1666 19.5783 1.76307 
-6.77626e-21 6.432e-05 27.1823 18.7465 0.996745 
8.04e-06 6.432e-05 28.4764 19.4701 0.0583181 
1.608e-05 6.432e-05 31.4441 22.0169 -0.918541 
2.412e-05 6.432e-05 36.7752 26.828 -1.68226 
3.216e-05 6.432e-05 45.462 35.6007 -2.35732 
4.02e-05 6.432e-05 61.0878 51.23 -3.65549 
4.824e-05 6.432e-05 90.2055 79.7762 -5.01634 
5.628e-05 6.432e-05 143.676 131.558 -4.9101 
6.432e-05 6.432e-05 239.619 228.588 -0.538684 
7.236e-05 6.432e-05 452.537 446.061 -3.17701 
8.04e-05 6.432e-05 496.909 499.411 -25.0293 
8.844e-05 6.432e-05 0 0 0 
9.648e-05 6.432e-05 0 0 0 
-9.648e-05 7.236e-05 0 0 0 
-8.844e-05 7.236e-05 0 0 0 
-8.04e-05 7.236e-05 0 0 0 
-7.236e-05 7.236e-05 489.927 488.235 26.1622 
-6.432e-05 7.236e-05 447.016 453.543 3.62843 
-5.628e-05 7.236e-05 240.213 260.532 -2.57851 
-4.824e-05 7.236e-05 153.238 159.03 0.264158 
-4.02e-05 7.236e-05 103.159 96.7887 2.68689 
-3.216e-05 7.236e-05 74.0144 66.868 4.52223 
-2.412e-05 7.236e-05 59.2339 51.0793 3.47539 
-1.608e-05 7.236e-05 50.5587 42.1131 2.60545 
-8.04e-06 7.236e-05 46.5143 36.8802 1.69691 
-6.77626e-21 7.236e-05 45.5133 35.2911 0.73019 
8.04e-06 7.236e-05 48.6145 36.9263 -0.262162 
1.608e-05 7.236e-05 53.8003 41.8075 -1.28934 
2.412e-05 7.236e-05 64.1677 51.0651 -2.59584 
3.216e-05 7.236e-05 81.2719 67.2585 -3.98656 
4.02e-05 7.236e-05 111.484 97.7398 -5.29755 
4.824e-05 7.236e-05 164.296 152.834 -5.35895 
5.628e-05 7.236e-05 251.586 246.358 3.39039 
6.432e-05 7.236e-05 450.925 446.862 3.83386 
7.236e-05 7.236e-05 492.726 490.371 -23.754 
8.04e-05 7.236e-05 0 0 0 
8.844e-05 7.236e-05 0 0 0 
9.648e-05 7.236e-05 0 0 0 
-9.648e-05 8.04e-05 0 0 0 
-8.844e-05 8.04e-05 0 0 0 
-8.04e-05 8.04e-05 0 0 0 
-7.236e-05 8.04e-05 0 0 0 
-6.432e-05 8.04e-05 502.311 498.56 27.4666 
-5.628e-05 8.04e-05 487.483 482.907 14.7231 
-4.824e-05 8.04e-05 305.161 344.037 2.48661 
-4.02e-05 8.04e-05 198.537 205.848 -8.39966 
-3.216e-05 8.04e-05 139.638 132 5.20259 
-2.412e-05 8.04e-05 114.806 104.119 3.45591 
-1.608e-05 8.04e-05 96.7688 85.97 2.9646 
-8.04e-06 8.04e-05 88.0568 77.861 1.68664 
-6.77626e-21 8.04e-05 86.4142 74.5414 -0.0295196 
8.04e-06 8.04e-05 91.0149 77.0967 -1.42449 
1.608e-05 8.04e-05 102.527 88.0562 -2.25505 
2.412e-05 8.04e-05 122.725 110.317 -3.37985 
3.216e-05 8.04e-05 159.074 148.69 -4.32223 
4.02e-05 8.04e-05 217.242 209.397 -2.39235 
4.824e-05 8.04e-05 313.878 304.563 9.07 
5.628e-05 8.04e-05 463.49 455.247 1.58269 
6.432e-05 8.04e-05 506.224 496.96 -25.0201 
7.236e-05 8.04e-05 0 0 0 
8.04e-05 8.04e-05 0 0 0 
8.844e-05 8.04e-05 0 0 0 
9.648e-05 8.04e-05 0 0 0 
-9.648e-05 8.844e-05 0 0 0 
-8.844e-05 8.844e-05 0 0 0 
-8.04e-05 8.844e-05 0 0 0 
-7.236e-05 8.844e-05 0 0 0 
-6.432e-05 8.844e-05 0 0 0 
-5.628e-05 8.844e-05 554.026 539.346 16.2154 
-4.824e-05 8.844e-05 501.986 495.211 32.3197 
-4.02e-05 8.844e-05 589.803 574.961 -6.39758 
-3.216e-05 8.844e-05 336.467 350.696 -3.30149 
-2.412e-05 8.844e-05 244.61 249.366 1.10782 
-1.608e-05 8.844e-05 201.722 201.403 2.25603 
-8.04e-06 8.844e-05 184.566 179.333 1.90639 
-6.77626e-21 8.844e-05 181.465 175.258 1.27024 
8.04e-06 8.844e-05 192.709 185.952 0.332806 
1.608e-05 8.844e-05 215.392 210.533 0.448732 
2.412e-05 8.844e-05 261.69 257.428 0.643722 
3.216e-05 8.844e-05 317.166 317.921 11.726 
4.02e-05 8.844e-05 488.782 497.759 3.53241 
4.824e-05 8.844e-05 450.12 445.239 4.25268 
5.628e-05 8.844e-05 498.672 503.027 -16.1606 
6.432e-05 8.844e-05 0 0 0 
7.236e-05 8.844e-05 0 0 0 
8.04e-05 8.844e-05 0 0 0 
8.844e-05 8.844e-05 0 0 0 
9.648e-05 8.844e-05 0 0 0 
-9.648e-05 9.648e-05 0 0 0 
-8.844e-05 9.648e-05 0 0 0 
-8.04e-05 9.648e-05 0 0 0 
-7.236e-05 9.648e-05 0 0 0 
-6.432e-05 9.648e-05 0 0 0 
-5.628e-05 9.648e-05 0 0 0 
-4.824e-05 9.648e-05 0 0 0 
-4.02e-05 9.648e-05 653.721 675.56 23.5523 
-3.216e-05 9.648e-05 557.618 578.155 3.63986 
-2.412e-05 9.648e-05 479.276 506.374 -1.55834 
-1.608e-05 9.648e-05 429.751 457.157 0.613196 
-8.04e-06 9.648e-05 406.418 429.65 3.71659 
-6.77626e-21 9.648e-05 392.894 411.63 5.90488 
8.04e-06 9.648e-05 403.108 417.297 8.42617 
1.608e-05 9.648e-05 411.207 427.028 7.87579 
2.412e-05 9.648e-05 465.466 478.594 7.43001 
3.216e-05 9.648e-05 456.763 453.65 6.06929 
4.02e-05 9.648e-05 517.675 495.787 -15.8725 
4.824e-05 9.648e-05 0 0 0 
5.628e-05 9.648e-05 0 0 0 
6.432e-05 9.648e-05 0 0 0 
7.236e-05 9.648e-05 0 0 0 
8.04e-05 9.648e-05 0 0 0 
8.844e-05 9.648e-05 0 0 0 
9.648e-05 9.648e-05 0 0 0 
