ITEM: TIMESTEP
100000
ITEM: NUMBER OF CELLS
625
ITEM: BOX BOUNDS pp pp pp
-0.0001005 0.0001005
-0.0001005 0.0001005
-0.0001005 0.0001005
ITEM: CELLS xc yc f_3[1] f_3[2] f_3[3] 
-9.648e-05 -9.648e-05 0 0 0 
-8.844e-05 -9.648e-05 0 0 0 
-8.04e-05 -9.648e-05 0 0 0 
-7.236e-05 -9.648e-05 0 0 0 
-6.432e-05 -9.648e-05 0 0 0 
-5.628e-05 -9.648e-05 0 0 0 
-4.824e-05 -9.648e-05 0 0 0 
-4.02e-05 -9.648e-05 441.901 430.719 -24.7531 
-3.216e-05 -9.648e-05 391.601 380.453 5.75529 
-2.412e-05 -9.648e-05 524.582 538.698 11.7379 
-1.608e-05 -9.648e-05 363.07 381.172 17.86 
-8.04e-06 -9.648e-05 401.369 428.744 16.4241 
-9.648e-05 -8.844e-05 0 0 0 
-8.844e-05 -8.844e-05 0 0 0 
-8.04e-05 -8.844e-05 0 0 0 
-7.236e-05 -8.844e-05 0 0 0 
-6.432e-05 -8.844e-05 0 0 0 
-5.628e-05 -8.844e-05 459.676 454.483 -17.7807 
-4.824e-05 -8.844e-05 412.581 403.308 6.93545 
-4.02e-05 -8.844e-05 541.673 554.255 4.36986 
-3.216e-05 -8.844e-05 307.243 306.52 22.3379 
-2.412e-05 -8.844e-05 278.827 288.173 3.71397 
-1.608e-05 -8.844e-05 223.094 226.274 5.83215 
-8.04e-06 -8.844e-05 203.527 200.726 3.76892 
-9.648e-05 -8.04e-05 0 0 0 
-8.844e-05 -8.04e-05 0 0 0 
-8.04e-05 -8.04e-05 0 0 0 
-7.236e-05 -8.04e-05 0 0 0 
-6.432e-05 -8.04e-05 469.119 462.532 -39.3284 
-5.628e-05 -8.04e-05 438.165 415.096 1.80858 
-4.824e-05 -8.04e-05 309.343 294.826 13.3323 
-4.02e-05 -8.04e-05 217.51 211.984 -1.71628 
-3.216e-05 -8.04e-05 162.837 152.874 -3.63665 
-2.412e-05 -8.04e-05 126.8 113.037 -3.33994 
-1.608e-05 -8.04e-05 105.56 91.7157 -2.15522 
-8.04e-06 -8.04e-05 93.6325 81.3839 -0.991218 
-9.648e-05 -7.236e-05 0 0 0 
-8.844e-05 -7.236e-05 0 0 0 
-8.04e-05 -7.236e-05 0 0 0 
-7.236e-05 -7.236e-05 455.982 442.511 -23.9789 
-6.432e-05 -7.236e-05 483.275 479.813 3.4061 
-5.628e-05 -7.236e-05 248.466 237.327 6.40054 
-4.824e-05 -7.236e-05 172.696 155.649 -5.01762 
-4.02e-05 -7.236e-05 118.274 99.0708 -5.50204 
-3.216e-05 -7.236e-05 86.5022 69.0166 -5.23589 
-2.412e-05 -7.236e-05 67.1246 52.122 -3.64448 
-1.608e-05 -7.236e-05 55.9366 42.333 -1.9588 
-8.04e-06 -7.236e-05 49.7655 37.3374 -0.907729 
-9.648e-05 -6.432e-05 0 0 0 
-8.844e-05 -6.432e-05 0 0 0 
-8.04e-05 -6.432e-05 429.857 449.738 -44.1847 
-7.236e-05 -6.432e-05 430.877 393.544 -10.7669 
-6.432e-05 -6.432e-05 246.869 221.315 -0.985181 
-5.628e-05 -6.432e-05 150.077 131.907 -4.61523 
-4.824e-05 -6.432e-05 94.5582 79.6824 -4.75974 
-4.02e-05 -6.432e-05 64.1847 50.9559 -4.00635 
-3.216e-05 -6.432e-05 47.2103 35.0186 -3.25514 
-2.412e-05 -6.432e-05 37.3848 26.3228 -2.31322 
-1.608e-05 -6.432e-05 31.795 21.2076 -1.06947 
-8.04e-06 -6.432e-05 28.5122 18.8897 -0.0312521 
-9.648e-05 -5.628e-05 0 0 0 
-8.844e-05 -5.628e-05 587.063 573.629 -41.6709 
-8.04e-05 -5.628e-05 579.234 615.124 -32.9724 
-7.236e-05 -5.628e-05 267.12 228.931 12.8708 
-6.432e-05 -5.628e-05 143.787 134.742 0.454904 
-5.628e-05 -5.628e-05 82.6489 76.8143 -3.31644 
-4.824e-05 -5.628e-05 53.1725 46.6397 -3.83917 
-4.02e-05 -5.628e-05 37.0004 29.7865 -3.00996 
-3.216e-05 -5.628e-05 27.8823 20.6001 -2.31518 
-2.412e-05 -5.628e-05 22.5497 15.0466 -1.45355 
-1.608e-05 -5.628e-05 19.3663 12.0445 -0.582236 
-8.04e-06 -5.628e-05 17.5611 10.739 0.10346 
-9.648e-05 -4.824e-05 0 0 0 
-8.844e-05 -4.824e-05 459.948 457.473 -37.3261 
-8.04e-05 -4.824e-05 352.335 297.042 0.119906 
-7.236e-05 -4.824e-05 149.32 141.756 -2.41913 
-6.432e-05 -4.824e-05 84.468 81.0198 -3.3785 
-5.628e-05 -4.824e-05 49.2011 46.8517 -3.94803 
-4.824e-05 -4.824e-05 31.5212 28.6552 -3.3291 
-4.02e-05 -4.824e-05 22.1998 18.9781 -2.77535 
-3.216e-05 -4.824e-05 17.1245 13.13 -2.07403 
-2.412e-05 -4.824e-05 14.0841 9.72167 -1.29132 
-1.608e-05 -4.824e-05 12.3039 7.72187 -0.655758 
-8.04e-06 -4.824e-05 11.1585 6.81602 0.068775 
-9.648e-05 -4.02e-05 735.446 692.554 -33.6407 
-8.844e-05 -4.02e-05 622.664 636.678 5.14773 
-8.04e-05 -4.02e-05 209.634 192.473 9.26629 
-7.236e-05 -4.02e-05 99.0922 104.61 -2.34203 
-6.432e-05 -4.02e-05 52.2206 57.2745 -3.99606 
-5.628e-05 -4.02e-05 30.7574 32.7952 -3.97438 
-4.824e-05 -4.02e-05 20.0334 20.187 -3.29135 
-4.02e-05 -4.02e-05 14.3389 13.3814 -2.57826 
-3.216e-05 -4.02e-05 11.1226 9.19761 -1.78649 
-2.412e-05 -4.02e-05 9.21917 6.88896 -1.09957 
-1.608e-05 -4.02e-05 8.07489 5.5434 -0.56283 
-8.04e-06 -4.02e-05 7.37854 4.75228 -0.042049 
-9.648e-05 -3.216e-05 574.833 525.941 -0.659903 
-8.844e-05 -3.216e-05 365.122 329.788 7.93526 
-8.04e-05 -3.216e-05 128.368 133.989 -5.48485 
-7.236e-05 -3.216e-05 66.0709 74.2354 -4.9398 
-6.432e-05 -3.216e-05 35.8803 41.9958 -4.19913 
-5.628e-05 -3.216e-05 21.1589 24.7359 -3.67697 
-4.824e-05 -3.216e-05 13.8364 15.7327 -3.04902 
-4.02e-05 -3.216e-05 10.0249 10.2889 -2.32339 
-3.216e-05 -3.216e-05 7.73724 7.33031 -1.6578 
-2.412e-05 -3.216e-05 6.3146 5.36899 -0.911218 
-1.608e-05 -3.216e-05 5.57439 4.29717 -0.503903 
-8.04e-06 -3.216e-05 5.06878 3.76749 -0.149967 
-9.648e-05 -2.412e-05 519.213 461.489 1.24586 
-8.844e-05 -2.412e-05 257.493 241.37 -1.05902 
-8.04e-05 -2.412e-05 104.402 113.479 -3.97743 
-7.236e-05 -2.412e-05 50.5003 60.5374 -4.27625 
-6.432e-05 -2.412e-05 27.057 34.2772 -3.99763 
-5.628e-05 -2.412e-05 16.0141 20.1977 -3.32508 
-4.824e-05 -2.412e-05 10.3145 13.1872 -2.544 
-4.02e-05 -2.412e-05 7.08423 8.53939 -1.66815 
-3.216e-05 -2.412e-05 5.57091 5.96897 -1.12776 
-2.412e-05 -2.412e-05 4.72043 4.54129 -0.744478 
-1.608e-05 -2.412e-05 4.10487 3.60317 -0.409285 
-8.04e-06 -2.412e-05 3.79634 3.16949 -0.0729205 
-9.648e-05 -1.608e-05 467.002 409.477 -2.83272 
-8.844e-05 -1.608e-05 203.907 200.399 -3.05735 
-8.04e-05 -1.608e-05 86.7971 97.8377 -4.14317 
-7.236e-05 -1.608e-05 41.5735 51.9297 -3.41656 
-6.432e-05 -1.608e-05 22.1153 29.7152 -2.98976 
-5.628e-05 -1.608e-05 12.6549 17.8248 -2.45405 
-4.824e-05 -1.608e-05 8.11894 11.5839 -1.8436 
-4.02e-05 -1.608e-05 5.80082 7.68707 -1.19562 
-3.216e-05 -1.608e-05 4.59498 5.43457 -0.923307 
-2.412e-05 -1.608e-05 3.76093 4.02147 -0.519005 
-1.608e-05 -1.608e-05 3.30283 3.28966 -0.301594 
-8.04e-06 -1.608e-05 3.05715 2.83973 -0.086858 
-9.648e-05 -8.04e-06 446.76 397.479 -8.8669 
-8.844e-05 -8.04e-06 183.25 187.893 -4.02305 
-8.04e-05 -8.04e-06 78.9913 89.8981 -3.17696 
-7.236e-05 -8.04e-06 37.2652 48.0508 -2.1297 
-6.432e-05 -8.04e-06 19.1349 27.1963 -1.88775 
-5.628e-05 -8.04e-06 10.8013 16.6404 -1.53817 
-4.824e-05 -8.04e-06 6.91709 10.8312 -1.19649 
-4.02e-05 -8.04e-06 4.95028 7.24085 -0.910439 
-3.216e-05 -8.04e-06 3.78786 5.09414 -0.595336 
-2.412e-05 -8.04e-06 3.23953 3.79327 -0.295656 
-1.608e-05 -8.04e-06 2.96014 3.07846 -0.130966 
-8.04e-06 -8.04e-06 2.7204 2.6683 -0.0411117 
-9.648e-05 -6.77626e-21 401.531 364.12 -12.125 
-8.844e-05 -6.77626e-21 180.088 186.358 -5.37366 
-8.04e-05 -6.77626e-21 78.1429 88.8788 -1.34913 
-7.236e-05 -6.77626e-21 35.7587 48.1152 -0.665864 
-6.432e-05 -6.77626e-21 18.0557 26.7669 -0.756059 
-5.628e-05 -6.77626e-21 10.0961 17.1215 -0.86184 
-4.824e-05 -6.77626e-21 6.46997 10.7307 -0.665594 
-4.02e-05 -6.77626e-21 4.69127 7.14621 -0.464368 
-3.216e-05 -6.77626e-21 3.69019 5.02113 -0.310456 
-2.412e-05 -6.77626e-21 3.04191 3.64045 -0.151248 
-1.608e-05 -6.77626e-21 2.73403 2.95533 -0.00651233 
-8.04e-06 -6.77626e-21 2.64246 2.71318 0.0118829 
-9.648e-05 8.04e-06 429.203 401.151 -15.6718 
-8.844e-05 8.04e-06 199.915 202.649 -4.38617 
-8.04e-05 8.04e-06 81.2734 93.9606 1.03897 
-7.236e-05 8.04e-06 36.9937 50.2712 0.56764 
-6.432e-05 8.04e-06 18.4671 28.3986 0.11441 
-5.628e-05 8.04e-06 10.7233 17.9143 -0.112266 
-4.824e-05 8.04e-06 6.74938 11.0116 -0.0406834 
-4.02e-05 8.04e-06 4.79214 7.37399 -0.0324422 
-3.216e-05 8.04e-06 3.82473 5.11764 0.0648827 
-2.412e-05 8.04e-06 3.2599 3.71285 0.08056 
-1.608e-05 8.04e-06 2.9766 3.08577 0.056447 
-8.04e-06 8.04e-06 2.86069 2.7509 0.0717769 
-6.77626e-21 8.04e-06 2.76396 2.6672 0.0267204 
-9.648e-05 1.608e-05 379.278 361.621 -18.0273 
-8.844e-05 1.608e-05 227.443 224.261 -6.66493 
-8.04e-05 1.608e-05 91.1316 105.128 2.49499 
-7.236e-05 1.608e-05 41.7747 56.562 1.9668 
-6.432e-05 1.608e-05 20.9596 31.5191 1.01579 
-5.628e-05 1.608e-05 12.0213 19.6903 0.611149 
-4.824e-05 1.608e-05 7.78395 12.0636 0.457707 
-4.02e-05 1.608e-05 5.49819 7.92118 0.457319 
-3.216e-05 1.608e-05 4.26524 5.47452 0.431684 
-2.412e-05 1.608e-05 3.65706 4.06461 0.310828 
-1.608e-05 1.608e-05 3.28088 3.23886 0.208333 
-8.04e-06 1.608e-05 3.10171 2.88897 0.182898 
-6.77626e-21 1.608e-05 3.03672 2.77307 0.0823812 
-9.648e-05 2.412e-05 540.688 530.32 -11.7981 
-8.844e-05 2.412e-05 288.664 279.862 -4.31291 
-8.04e-05 2.412e-05 112.73 126.597 3.25147 
-7.236e-05 2.412e-05 51.136 67.3434 3.3579 
-6.432e-05 2.412e-05 25.976 36.6857 2.18739 
-5.628e-05 2.412e-05 14.9977 21.8998 1.42232 
-4.824e-05 2.412e-05 9.52125 13.8497 1.22594 
-4.02e-05 2.412e-05 6.75216 9.12582 1.00912 
-3.216e-05 2.412e-05 5.34822 6.35493 0.840974 
-2.412e-05 2.412e-05 4.37942 4.56846 0.603507 
-1.608e-05 2.412e-05 3.93063 3.58937 0.463645 
-8.04e-06 2.412e-05 3.70168 3.18443 0.372627 
-6.77626e-21 2.412e-05 3.70475 3.06626 0.144092 
-9.648e-05 3.216e-05 382.8 396.626 -5.82776 
-8.844e-05 3.216e-05 308.253 308.074 -23.7476 
-8.04e-05 3.216e-05 152.605 163.822 3.85815 
-7.236e-05 3.216e-05 68.4175 86.1547 4.76636 
-6.432e-05 3.216e-05 34.7656 46.4584 3.16042 
-5.628e-05 3.216e-05 20.4653 27.6508 2.26841 
-4.824e-05 3.216e-05 12.9588 16.8564 2.0727 
-4.02e-05 3.216e-05 9.18682 10.9377 1.70875 
-3.216e-05 3.216e-05 7.09997 7.65287 1.46238 
-2.412e-05 3.216e-05 5.97932 5.5019 1.12241 
-1.608e-05 3.216e-05 5.28925 4.34015 0.779019 
-8.04e-06 3.216e-05 4.89428 3.71131 0.460599 
-6.77626e-21 3.216e-05 4.99396 3.56399 0.24405 
-9.648e-05 4.02e-05 437.2 451.528 19.3592 
-8.844e-05 4.02e-05 553.377 534.794 -5.2083 
-8.04e-05 4.02e-05 211.798 217.272 1.46685 
-7.236e-05 4.02e-05 98.9282 117.59 4.48116 
-6.432e-05 4.02e-05 50.8299 63.5327 4.06986 
-5.628e-05 4.02e-05 29.5643 36.9005 2.96 
-4.824e-05 4.02e-05 18.6715 21.8958 2.76266 
-4.02e-05 4.02e-05 13.4674 14.6196 2.41362 
-3.216e-05 4.02e-05 10.2811 9.69064 2.00986 
-2.412e-05 4.02e-05 8.45272 7.17404 1.67369 
-1.608e-05 4.02e-05 7.40754 5.60853 1.28053 
-8.04e-06 4.02e-05 7.01568 4.80022 0.840136 
-6.77626e-21 4.02e-05 6.83741 4.42984 0.437901 
-9.648e-05 4.824e-05 0 0 0 
-8.844e-05 4.824e-05 402.978 413.009 -7.34893 
-8.04e-05 4.824e-05 293.162 307.974 -13.5199 
-7.236e-05 4.824e-05 155.733 172.157 4.29295 
-6.432e-05 4.824e-05 79.1451 94.0388 4.31072 
-5.628e-05 4.824e-05 46.3764 52.6204 3.6856 
-4.824e-05 4.824e-05 28.5343 30.7802 3.3535 
-4.02e-05 4.824e-05 20.3708 20.0551 3.35867 
-3.216e-05 4.824e-05 15.3525 13.7623 2.97198 
-2.412e-05 4.824e-05 12.3389 9.90182 2.30551 
-1.608e-05 4.824e-05 11.2154 7.91685 1.74702 
-8.04e-06 4.824e-05 10.8035 6.86314 1.306 
-6.77626e-21 4.824e-05 10.5474 6.35473 0.620159 
-9.648e-05 5.628e-05 0 0 0 
-8.844e-05 5.628e-05 454.674 456.859 13.8854 
-8.04e-05 5.628e-05 414.897 438.5 -0.318129 
-7.236e-05 5.628e-05 238.359 249.34 -7.0088 
-6.432e-05 5.628e-05 131.232 149.789 4.10839 
-5.628e-05 5.628e-05 76.4764 83.1085 3.36481 
-4.824e-05 5.628e-05 47.6897 48.9093 3.79322 
-4.02e-05 5.628e-05 33.3141 30.8732 3.91858 
-3.216e-05 5.628e-05 24.5816 21.1434 3.6889 
-2.412e-05 5.628e-05 20.2208 15.5946 3.03365 
-1.608e-05 5.628e-05 17.6688 12.3184 2.13416 
-8.04e-06 5.628e-05 16.8177 10.8709 1.59867 
-6.77626e-21 5.628e-05 16.6482 10.293 0.911247 
-9.648e-05 6.432e-05 0 0 0 
-8.844e-05 6.432e-05 0 0 0 
-8.04e-05 6.432e-05 461.601 467.759 38.0304 
-7.236e-05 6.432e-05 483.435 484.783 -3.45331 
-6.432e-05 6.432e-05 221.024 245.905 0.782298 
-5.628e-05 6.432e-05 134.839 142.91 -0.264774 
-4.824e-05 6.432e-05 80.9558 83.8019 3.31109 
-4.02e-05 6.432e-05 57.9458 52.4608 3.92574 
-3.216e-05 6.432e-05 42.7796 35.7355 4.5685 
-2.412e-05 6.432e-05 34.3006 27.0236 3.75057 
-1.608e-05 6.432e-05 30.278 21.7728 3.03064 
-8.04e-06 6.432e-05 27.6935 19.0351 1.93829 
-6.77626e-21 6.432e-05 27.0027 18.0274 0.826945 
-9.648e-05 7.236e-05 0 0 0 
-8.844e-05 7.236e-05 0 0 0 
-8.04e-05 7.236e-05 0 0 0 
-7.236e-05 7.236e-05 443.589 455.846 24.319 
-6.432e-05 7.236e-05 395.649 432.524 11.201 
-5.628e-05 7.236e-05 228.678 266.595 -12.8469 
-4.824e-05 7.236e-05 141.954 149.754 2.50904 
-4.02e-05 7.236e-05 104.886 98.3624 1.55037 
-3.216e-05 7.236e-05 73.9522 65.8086 4.76491 
-2.412e-05 7.236e-05 60.4063 50.6611 4.10078 
-1.608e-05 7.236e-05 52.6689 42.0241 3.43162 
-8.04e-06 7.236e-05 48.337 37.2118 2.39792 
-6.77626e-21 7.236e-05 47.6563 35.5623 0.790212 
-9.648e-05 8.04e-05 0 0 0 
-8.844e-05 8.04e-05 0 0 0 
-8.04e-05 8.04e-05 0 0 0 
-7.236e-05 8.04e-05 0 0 0 
-6.432e-05 8.04e-05 452.846 430.631 44.7321 
-5.628e-05 8.04e-05 613.505 580.786 35.254 
-4.824e-05 8.04e-05 297.595 353.429 0.2113 
-4.02e-05 8.04e-05 192.768 209.101 -8.7023 
-3.216e-05 8.04e-05 134.61 128.226 5.61058 
-2.412e-05 8.04e-05 114.032 104.402 4.13334 
-1.608e-05 8.04e-05 98.3923 86.9696 3.7491 
-8.04e-06 8.04e-05 90.0132 78.8881 2.78272 
-6.77626e-21 8.04e-05 87.602 77.6209 1.06423 
-9.648e-05 8.844e-05 0 0 0 
-8.844e-05 8.844e-05 0 0 0 
-8.04e-05 8.844e-05 0 0 0 
-7.236e-05 8.844e-05 0 0 0 
-6.432e-05 8.844e-05 0 0 0 
-5.628e-05 8.844e-05 576.922 578.959 39.1385 
-4.824e-05 8.844e-05 453.697 457.842 36.0205 
-4.02e-05 8.844e-05 638.349 623.877 -4.02908 
-3.216e-05 8.844e-05 329.89 365.092 -8.5891 
-2.412e-05 8.844e-05 239.96 256.72 0.843063 
-1.608e-05 8.844e-05 199.489 204.058 3.19263 
-8.04e-06 8.844e-05 187.491 183.104 3.90112 
-6.77626e-21 8.844e-05 185.421 179.365 5.04183 
-9.648e-05 9.648e-05 0 0 0 
-8.844e-05 9.648e-05 0 0 0 
-8.04e-05 9.648e-05 0 0 0 
-7.236e-05 9.648e-05 0 0 0 
-6.432e-05 9.648e-05 0 0 0 
-5.628e-05 9.648e-05 0 0 0 
-4.824e-05 9.648e-05 0 0 0 
-4.02e-05 9.648e-05 692.488 730.11 27.2898 
-3.216e-05 9.648e-05 526.844 577.156 3.21113 
-2.412e-05 9.648e-05 461.699 520.851 -0.551638 
-1.608e-05 9.648e-05 410.398 469.798 3.41574 
-8.04e-06 9.648e-05 397.99 447.835 8.68237 
-6.77626e-21 9.648e-05 365.814 401.99 12.0485 
-6.77626e-21 -6.77626e-21 2.58492 2.60992 0.0070869 
8.04e-06 -6.77626e-21 2.64524 2.62134 0.035976 
1.608e-05 -6.77626e-21 2.81671 3.03502 -0.031544 
2.412e-05 -6.77626e-21 3.03924 3.66739 -0.0965423 
3.216e-05 -6.77626e-21 3.57304 5.07851 -0.206023 
4.02e-05 -6.77626e-21 4.5666 7.25544 -0.497301 
4.824e-05 -6.77626e-21 6.41072 10.4261 -0.625278 
5.628e-05 -6.77626e-21 10.0087 16.5357 -0.902992 
6.432e-05 -6.77626e-21 18.1304 27.1307 -0.937378 
7.236e-05 -6.77626e-21 35.6265 47.5585 -0.443045 
8.04e-05 -6.77626e-21 77.7268 89.027 -1.57663 
8.844e-05 -6.77626e-21 179.741 184.986 -5.73924 
9.648e-05 -6.77626e-21 402.565 366.207 -12.3977 
8.04e-06 8.04e-06 2.80153 2.66177 -0.011122 
1.608e-05 8.04e-06 2.92404 3.03167 -0.0999236 
2.412e-05 8.04e-06 3.18243 3.63538 -0.299046 
3.216e-05 8.04e-06 3.83574 5.18272 -0.515454 
4.02e-05 8.04e-06 4.91766 7.39869 -0.839166 
4.824e-05 8.04e-06 6.8736 10.6176 -1.13075 
5.628e-05 8.04e-06 10.7899 16.615 -1.5849 
6.432e-05 8.04e-06 18.6433 27.4404 -1.82685 
7.236e-05 8.04e-06 36.8337 48.3974 -2.25224 
8.04e-05 8.04e-06 79.296 89.9284 -3.6658 
8.844e-05 8.04e-06 184.93 187.908 -4.08478 
9.648e-05 8.04e-06 448.248 397.404 -9.41486 
8.04e-06 1.608e-05 3.07646 2.83716 -0.0423908 
1.608e-05 1.608e-05 3.34307 3.17404 -0.178757 
2.412e-05 1.608e-05 3.80619 3.97749 -0.43663 
3.216e-05 1.608e-05 4.56948 5.45211 -0.831061 
4.02e-05 1.608e-05 5.76926 7.85584 -1.23054 
4.824e-05 1.608e-05 8.02381 11.2956 -1.72544 
5.628e-05 1.608e-05 12.4404 17.5139 -2.28079 
6.432e-05 1.608e-05 21.5596 29.2449 -2.69824 
7.236e-05 1.608e-05 41.0546 52.2351 -3.29502 
8.04e-05 1.608e-05 86.4075 96.8699 -4.142 
8.844e-05 1.608e-05 203.713 199.803 -3.99296 
9.648e-05 1.608e-05 469.216 412.093 -4.32206 
8.04e-06 2.412e-05 3.82693 3.1458 -0.0537558 
1.608e-05 2.412e-05 4.01861 3.48038 -0.286532 
2.412e-05 2.412e-05 4.63116 4.50792 -0.722348 
3.216e-05 2.412e-05 5.57011 6.05706 -1.06433 
4.02e-05 2.412e-05 7.19242 8.6215 -1.60704 
4.824e-05 2.412e-05 10.1146 12.9175 -2.37967 
5.628e-05 2.412e-05 15.7151 20.2053 -3.08246 
6.432e-05 2.412e-05 26.625 33.6664 -3.67429 
7.236e-05 2.412e-05 50.1517 60.9928 -4.34152 
8.04e-05 2.412e-05 103.4 112.386 -4.19589 
8.844e-05 2.412e-05 258.197 241.525 -1.34836 
9.648e-05 2.412e-05 523.148 463.724 -0.419801 
8.04e-06 3.216e-05 5.04909 3.69094 -0.0303699 
1.608e-05 3.216e-05 5.52013 4.26181 -0.410849 
2.412e-05 3.216e-05 6.30354 5.39245 -0.906884 
3.216e-05 3.216e-05 7.44756 7.17806 -1.40404 
4.02e-05 3.216e-05 9.71621 10.4633 -2.05581 
4.824e-05 3.216e-05 13.6235 15.4967 -2.93868 
5.628e-05 3.216e-05 20.8728 24.2494 -3.6147 
6.432e-05 3.216e-05 35.5542 41.5045 -4.57372 
7.236e-05 3.216e-05 66.204 74.9844 -5.18035 
8.04e-05 3.216e-05 128.518 134.096 -6.30061 
8.844e-05 3.216e-05 365.347 330.943 7.18168 
9.648e-05 3.216e-05 576.995 529.88 -3.58033 
8.04e-06 4.02e-05 7.18814 4.77715 -0.00887531 
1.608e-05 4.02e-05 7.67524 5.29446 -0.460034 
2.412e-05 4.02e-05 8.8367 6.79763 -1.03047 
3.216e-05 4.02e-05 10.8982 9.14728 -1.5989 
4.02e-05 4.02e-05 14.2946 13.3454 -2.40008 
4.824e-05 4.02e-05 20.221 20.5852 -3.32232 
5.628e-05 4.02e-05 30.9118 33.1733 -3.80129 
6.432e-05 4.02e-05 52.3164 56.903 -3.99884 
7.236e-05 4.02e-05 98.2158 103.448 -2.11672 
8.04e-05 4.02e-05 208.219 190.374 8.92313 
8.844e-05 4.02e-05 624.159 635.529 5.03916 
9.648e-05 4.02e-05 719.712 691.057 -31.6421 
8.04e-06 4.824e-05 11.0506 6.67293 0.00726167 
1.608e-05 4.824e-05 12.419 7.70055 -0.617922 
2.412e-05 4.824e-05 14.1957 9.41875 -1.35078 
3.216e-05 4.824e-05 17.0272 13.0052 -1.86455 
4.02e-05 4.824e-05 21.9457 18.6004 -2.54143 
4.824e-05 4.824e-05 31.3171 28.567 -3.44924 
5.628e-05 4.824e-05 49.2391 46.5679 -4.03985 
6.432e-05 4.824e-05 83.4047 80.9706 -3.72647 
7.236e-05 4.824e-05 147.798 140.687 -2.73499 
8.04e-05 4.824e-05 351.716 296.025 -0.298048 
8.844e-05 4.824e-05 462.64 455.597 -35.7041 
9.648e-05 4.824e-05 0 0 0 
8.04e-06 5.628e-05 17.2264 10.3424 -0.00401013 
1.608e-05 5.628e-05 19.0284 11.9597 -0.705475 
2.412e-05 5.628e-05 22.1395 14.9142 -1.46154 
3.216e-05 5.628e-05 27.5856 20.2803 -2.11196 
4.02e-05 5.628e-05 36.6215 29.7237 -3.07431 
4.824e-05 5.628e-05 52.8615 46.1171 -3.69672 
5.628e-05 5.628e-05 83.1322 76.8174 -3.47725 
6.432e-05 5.628e-05 142.569 134.673 -0.107364 
7.236e-05 5.628e-05 265.426 228.896 12.4685 
8.04e-05 5.628e-05 580.079 613.426 -35.4524 
8.844e-05 5.628e-05 594.934 580.944 -39.5133 
9.648e-05 5.628e-05 0 0 0 
8.04e-06 6.432e-05 28.2038 18.6542 -0.110764 
1.608e-05 6.432e-05 31.438 20.974 -1.04362 
2.412e-05 6.432e-05 36.7425 25.7942 -2.18433 
3.216e-05 6.432e-05 46.4729 34.8985 -3.16447 
4.02e-05 6.432e-05 63.7399 50.4833 -4.47785 
4.824e-05 6.432e-05 94.7464 79.4282 -5.2062 
5.628e-05 6.432e-05 151.03 132.631 -5.2046 
6.432e-05 6.432e-05 244.913 220.194 -0.948168 
7.236e-05 6.432e-05 432.748 395.82 -11.0398 
8.04e-05 6.432e-05 431.37 454.513 -48.1904 
8.844e-05 6.432e-05 0 0 0 
9.648e-05 6.432e-05 0 0 0 
8.04e-06 7.236e-05 50.2015 37.1824 -0.400944 
1.608e-05 7.236e-05 55.9735 41.8827 -2.01447 
2.412e-05 7.236e-05 67.1903 51.5884 -3.31591 
3.216e-05 7.236e-05 86.4795 68.7094 -4.62435 
4.02e-05 7.236e-05 117.468 99.3991 -4.85387 
4.824e-05 7.236e-05 172.715 155.436 -4.35381 
5.628e-05 7.236e-05 248.798 238.247 7.23191 
6.432e-05 7.236e-05 484.165 483.61 3.2812 
7.236e-05 7.236e-05 459.569 447.46 -24.6815 
8.04e-05 7.236e-05 0 0 0 
8.844e-05 7.236e-05 0 0 0 
9.648e-05 7.236e-05 0 0 0 
8.04e-06 8.04e-05 93.1393 81.6049 -0.954358 
1.608e-05 8.04e-05 105.734 92.1957 -2.37356 
2.412e-05 8.04e-05 127.729 113.231 -3.30516 
3.216e-05 8.04e-05 162.842 151.973 -3.30524 
4.02e-05 8.04e-05 216.458 209.478 -1.11498 
4.824e-05 8.04e-05 308.513 293.316 14.0259 
5.628e-05 8.04e-05 436.369 413.854 2.02277 
6.432e-05 8.04e-05 465.902 462.726 -40.0576 
7.236e-05 8.04e-05 0 0 0 
8.04e-05 8.04e-05 0 0 0 
8.844e-05 8.04e-05 0 0 0 
9.648e-05 8.04e-05 0 0 0 
8.04e-06 8.844e-05 203.411 199.639 3.87213 
1.608e-05 8.844e-05 221.911 225.413 6.38058 
2.412e-05 8.844e-05 276.774 287.595 4.23224 
3.216e-05 8.844e-05 307.266 308.796 22.4145 
4.02e-05 8.844e-05 536.879 552.675 3.4945 
4.824e-05 8.844e-05 413.043 404.556 7.48246 
5.628e-05 8.844e-05 465.45 457.54 -20.713 
6.432e-05 8.844e-05 0 0 0 
7.236e-05 8.844e-05 0 0 0 
8.04e-05 8.844e-05 0 0 0 
8.844e-05 8.844e-05 0 0 0 
9.648e-05 8.844e-05 0 0 0 
8.04e-06 9.648e-05 402.295 428.957 15.3592 
1.608e-05 9.648e-05 361.26 378.425 17.6579 
2.412e-05 9.648e-05 526.268 535.534 11.0146 
3.216e-05 9.648e-05 393.723 381.391 5.36794 
4.02e-05 9.648e-05 440.344 428.448 -28.0501 
4.824e-05 9.648e-05 0 0 0 
5.628e-05 9.648e-05 0 0 0 
6.432e-05 9.648e-05 0 0 0 
7.236e-05 9.648e-05 0 0 0 
8.04e-05 9.648e-05 0 0 0 
8.844e-05 9.648e-05 0 0 0 
9.648e-05 9.648e-05 0 0 0 
-6.77626e-21 -9.648e-05 366.713 403.517 13.0347 
8.04e-06 -9.648e-05 397.941 447.796 9.12352 
1.608e-05 -9.648e-05 411.738 470.138 4.53439 
2.412e-05 -9.648e-05 461.411 521.23 0.172072 
3.216e-05 -9.648e-05 527.546 572.756 1.82039 
4.02e-05 -9.648e-05 702.535 727.539 32.271 
4.824e-05 -9.648e-05 0 0 0 
5.628e-05 -9.648e-05 0 0 0 
6.432e-05 -9.648e-05 0 0 0 
7.236e-05 -9.648e-05 0 0 0 
8.04e-05 -9.648e-05 0 0 0 
8.844e-05 -9.648e-05 0 0 0 
9.648e-05 -9.648e-05 0 0 0 
-6.77626e-21 -8.844e-05 187.184 180.739 4.90657 
8.04e-06 -8.844e-05 188.28 183.648 3.58935 
1.608e-05 -8.844e-05 200.905 204.364 3.58598 
2.412e-05 -8.844e-05 240.628 258.065 1.47623 
3.216e-05 -8.844e-05 331.248 363.868 -8.04896 
4.02e-05 -8.844e-05 639.678 624.985 -5.58707 
4.824e-05 -8.844e-05 453.133 459.868 35.9705 
5.628e-05 -8.844e-05 584.397 584.221 42.61 
6.432e-05 -8.844e-05 0 0 0 
7.236e-05 -8.844e-05 0 0 0 
8.04e-05 -8.844e-05 0 0 0 
8.844e-05 -8.844e-05 0 0 0 
9.648e-05 -8.844e-05 0 0 0 
-6.77626e-21 -8.04e-05 88.18 78.1327 1.22048 
8.04e-06 -8.04e-05 88.72 79.0626 3.0653 
1.608e-05 -8.04e-05 97.4453 86.8872 4.07302 
2.412e-05 -8.04e-05 113.281 104.553 4.28611 
3.216e-05 -8.04e-05 135.107 128.32 5.85008 
4.02e-05 -8.04e-05 192.725 208.806 -8.71281 
4.824e-05 -8.04e-05 295.73 352.588 -0.885423 
5.628e-05 -8.04e-05 612.236 579.932 32.2531 
6.432e-05 -8.04e-05 455.731 434.062 48.805 
7.236e-05 -8.04e-05 0 0 0 
8.04e-05 -8.04e-05 0 0 0 
8.844e-05 -8.04e-05 0 0 0 
9.648e-05 -8.04e-05 0 0 0 
-6.77626e-21 -7.236e-05 47.3469 35.6586 0.7245 
8.04e-06 -7.236e-05 47.589 37.3634 1.98673 
1.608e-05 -7.236e-05 51.8161 41.5647 3.57052 
2.412e-05 -7.236e-05 60.765 50.7201 4.42218 
3.216e-05 -7.236e-05 74.4586 66.4628 5.14583 
4.02e-05 -7.236e-05 103.343 97.976 2.10781 
4.824e-05 -7.236e-05 139.492 148.464 2.57738 
5.628e-05 -7.236e-05 226.929 265.084 -13.1972 
6.432e-05 -7.236e-05 397.08 435.189 12.3087 
7.236e-05 -7.236e-05 446.697 458.065 27.013 
8.04e-05 -7.236e-05 0 0 0 
8.844e-05 -7.236e-05 0 0 0 
9.648e-05 -7.236e-05 0 0 0 
-6.77626e-21 -6.432e-05 27.1505 18.4552 0.758538 
8.04e-06 -6.432e-05 27.3603 18.9981 1.73195 
1.608e-05 -6.432e-05 29.5042 21.8518 2.8247 
2.412e-05 -6.432e-05 33.3646 26.7463 3.60655 
3.216e-05 -6.432e-05 41.3512 35.8619 4.5502 
4.02e-05 -6.432e-05 57.1653 52.4636 4.24767 
4.824e-05 -6.432e-05 80.5236 83.6011 3.7957 
5.628e-05 -6.432e-05 133.315 142.067 -0.347104 
6.432e-05 -6.432e-05 219.62 244.223 1.3722 
7.236e-05 -6.432e-05 482.029 485.699 -1.51853 
8.04e-05 -6.432e-05 457.677 465.6 38.288 
8.844e-05 -6.432e-05 0 0 0 
9.648e-05 -6.432e-05 0 0 0 
-6.77626e-21 -5.628e-05 17.2168 10.3089 0.860197 
8.04e-06 -5.628e-05 17.1476 10.8789 1.55718 
1.608e-05 -5.628e-05 17.7786 12.5922 2.21152 
2.412e-05 -5.628e-05 20.1707 15.6372 3.00564 
3.216e-05 -5.628e-05 24.7348 21.178 3.84481 
4.02e-05 -5.628e-05 33.1984 31.0312 3.84356 
4.824e-05 -5.628e-05 46.9472 49.093 3.91492 
5.628e-05 -5.628e-05 76.8783 83.2519 3.06951 
6.432e-05 -5.628e-05 132.252 150.16 4.26277 
7.236e-05 -5.628e-05 238.345 249.584 -6.21695 
8.04e-05 -5.628e-05 410.596 435.075 -0.652634 
8.844e-05 -5.628e-05 449.131 459.627 14.9214 
9.648e-05 -5.628e-05 0 0 0 
-6.77626e-21 -4.824e-05 10.7764 6.57079 0.693193 
8.04e-06 -4.824e-05 10.7663 6.8821 1.21656 
1.608e-05 -4.824e-05 11.579 8.11869 1.74915 
2.412e-05 -4.824e-05 12.9779 10.3255 2.3919 
3.216e-05 -4.824e-05 15.043 13.3927 2.76275 
4.02e-05 -4.824e-05 20.4504 20.2261 3.28474 
4.824e-05 -4.824e-05 28.6818 31.4589 3.76702 
5.628e-05 -4.824e-05 46.1678 52.3837 3.47376 
6.432e-05 -4.824e-05 79.0383 93.7436 4.26577 
7.236e-05 -4.824e-05 154.962 172.175 5.09936 
8.04e-05 -4.824e-05 290.431 307.959 -13.7395 
8.844e-05 -4.824e-05 404.894 414.28 -7.31281 
9.648e-05 -4.824e-05 0 0 0 
-6.77626e-21 -4.02e-05 7.17095 4.69497 0.396012 
8.04e-06 -4.02e-05 7.2127 5.00727 0.831979 
1.608e-05 -4.02e-05 7.55165 5.73017 1.25865 
2.412e-05 -4.02e-05 8.44601 7.24649 1.57786 
3.216e-05 -4.02e-05 10.1011 9.64306 2.09527 
4.02e-05 -4.02e-05 13.4371 14.4251 2.36477 
4.824e-05 -4.02e-05 19.0909 22.1648 2.83002 
5.628e-05 -4.02e-05 29.8431 36.751 2.99161 
6.432e-05 -4.02e-05 50.9599 63.8914 3.77744 
7.236e-05 -4.02e-05 98.8777 118.015 5.19533 
8.04e-05 -4.02e-05 208.959 215.382 1.10653 
8.844e-05 -4.02e-05 550.393 537.407 -4.88225 
9.648e-05 -4.02e-05 433.51 446.14 18.6527 
-6.77626e-21 -3.216e-05 4.92653 3.56034 0.182235 
8.04e-06 -3.216e-05 5.06832 3.95316 0.559061 
1.608e-05 -3.216e-05 5.37752 4.45786 0.812362 
2.412e-05 -3.216e-05 5.90084 5.62987 1.11232 
3.216e-05 -3.216e-05 7.10068 7.52367 1.49879 
4.02e-05 -3.216e-05 9.34753 11.0946 1.71793 
4.824e-05 -3.216e-05 12.9173 16.8912 1.96963 
5.628e-05 -3.216e-05 20.5199 27.6796 2.178 
6.432e-05 -3.216e-05 35.0431 46.7156 2.87584 
7.236e-05 -3.216e-05 68.3325 85.4576 4.70183 
8.04e-05 -3.216e-05 151.264 161.911 3.31566 
8.844e-05 -3.216e-05 307.139 307.433 -22.2997 
9.648e-05 -3.216e-05 384.648 400.483 -5.97555 
-6.77626e-21 -2.412e-05 3.70715 3.08754 0.0540907 
8.04e-06 -2.412e-05 3.73512 3.27785 0.241307 
1.608e-05 -2.412e-05 3.96945 3.69914 0.538414 
2.412e-05 -2.412e-05 4.468 4.63185 0.668788 
3.216e-05 -2.412e-05 5.33332 6.22499 0.937557 
4.02e-05 -2.412e-05 6.9387 9.30853 1.05635 
4.824e-05 -2.412e-05 9.66234 13.7921 1.22351 
5.628e-05 -2.412e-05 15.1914 22.6575 1.6142 
6.432e-05 -2.412e-05 25.8666 37.3881 2.19109 
7.236e-05 -2.412e-05 51.7014 66.756 3.27703 
8.04e-05 -2.412e-05 112.128 126.394 3.38948 
8.844e-05 -2.412e-05 289.827 278.907 -3.22198 
9.648e-05 -2.412e-05 538.959 532.329 -11.2693 
-6.77626e-21 -1.608e-05 2.91713 2.77507 0.0723749 
8.04e-06 -1.608e-05 2.99822 2.95025 0.144085 
1.608e-05 -1.608e-05 3.19878 3.24066 0.266362 
2.412e-05 -1.608e-05 3.52092 4.10731 0.345478 
3.216e-05 -1.608e-05 4.16219 5.51963 0.432042 
4.02e-05 -1.608e-05 5.40643 8.09522 0.443814 
4.824e-05 -1.608e-05 7.64945 12.1547 0.427056 
5.628e-05 -1.608e-05 11.9824 19.5892 0.621408 
6.432e-05 -1.608e-05 21.2207 31.5475 1.15886 
7.236e-05 -1.608e-05 41.7695 55.2576 1.96353 
8.04e-05 -1.608e-05 91.4799 104.188 2.51365 
8.844e-05 -1.608e-05 227.505 222.87 -6.08979 
9.648e-05 -1.608e-05 377.643 361.661 -17.2526 
-6.77626e-21 -8.04e-06 2.66039 2.63748 -0.00840139 
8.04e-06 -8.04e-06 2.73604 2.73654 0.0593732 
1.608e-05 -8.04e-06 2.83482 3.01678 0.0929674 
2.412e-05 -8.04e-06 3.22817 3.89908 0.1536 
3.216e-05 -8.04e-06 3.72857 5.0604 0.0612869 
4.02e-05 -8.04e-06 4.69069 7.50275 -0.067702 
4.824e-05 -8.04e-06 6.62279 11.0394 -0.183618 
5.628e-05 -8.04e-06 10.4887 17.3418 -0.118798 
6.432e-05 -8.04e-06 18.5943 28.3017 0.0390471 
7.236e-05 -8.04e-06 36.9584 49.9107 0.814801 
8.04e-05 -8.04e-06 81.6844 93.0841 1.12672 
8.844e-05 -8.04e-06 201.472 202.931 -4.08074 
9.648e-05 -8.04e-06 428.405 402.056 -14.7892 
