ITEM: TIMESTEP
800
ITEM: NUMBER OF CELLS
8
ITEM: BOX BOUNDS pp pp pp
-0.001 0.001
-0.001 0.001
-0.001 0.001
ITEM: CELLS id xc yc f_1[1] f_1[2] f_1[3] 
1 -0.0005 -0.0005 -0.0005 -0.0005 2 
2 0.0005 -0.0005 0.0005 -0.0005 2 
3 -0.0005 0.0005 -0.0005 0.0005 2 
4 0.0005 0.0005 0.0005 0.0005 2 
5 -0.0005 -0.0005 -0.0005 -0.0005 2 
6 0.0005 -0.0005 0.0005 -0.0005 2 
7 -0.0005 0.0005 -0.0005 0.0005 2 
8 0.0005 0.0005 0.0005 0.0005 2 
