ITEM: TIMESTEP
0
ITEM: NUMBER OF CELLS
8
ITEM: BOX BOUNDS pp pp pp
-0.001 0.001
-0.001 0.001
-0.001 0.001
ITEM: CELLS id xc yc f_1[1] f_1[2] f_1[3] 
1 -0.0005 -0.0005 0 0 0 
2 0.0005 -0.0005 0 0 0 
3 -0.0005 0.0005 0 0 0 
4 0.0005 0.0005 0 0 0 
5 -0.0005 -0.0005 0 0 0 
6 0.0005 -0.0005 0 0 0 
7 -0.0005 0.0005 0 0 0 
8 0.0005 0.0005 0 0 0 
