ITEM: TIMESTEP
500000
ITEM: NUMBER OF CELLS
125
ITEM: BOX BOUNDS pp ss pp
0 0.0001
0 1e-06
0 0.0001
ITEM: CELLS yc f_rho[1] f_rho[2] f_state[1] f_state[2] 
4e-09 115.193 2.49805e+25 300.528 103650 
1.2e-08 115.147 2.47967e+25 301.357 103171 
2e-08 115.11 2.47434e+25 301.782 103095 
2.8e-08 115.144 2.47357e+25 301.733 103046 
3.6e-08 115.279 2.47479e+25 301.672 103076 
4.4e-08 115.198 2.47401e+25 301.833 103098 
5.2e-08 115.211 2.47651e+25 301.664 103144 
6e-08 115.275 2.47486e+25 301.904 103158 
6.8e-08 115.296 2.47433e+25 301.717 103072 
7.6e-08 115.292 2.47541e+25 302.012 103218 
8.4e-08 115.306 2.47351e+25 302.25 103220 
9.2e-08 115.315 2.47862e+25 301.78 103272 
1e-07 115.261 2.4735e+25 301.822 103073 
1.08e-07 115.294 2.47244e+25 302.326 103201 
1.16e-07 115.238 2.46739e+25 302.658 103103 
1.24e-07 115.264 2.47148e+25 302.327 103162 
1.32e-07 115.266 2.46997e+25 302.623 103199 
1.4e-07 115.209 2.47092e+25 302.53 103208 
1.48e-07 115.257 2.46936e+25 302.611 103170 
1.56e-07 115.271 2.46816e+25 302.767 103173 
1.64e-07 115.235 2.46923e+25 302.676 103187 
1.72e-07 115.23 2.46706e+25 302.885 103167 
1.8e-07 115.281 2.46618e+25 302.636 103045 
1.88e-07 115.26 2.46602e+25 302.917 103134 
1.96e-07 115.185 2.46253e+25 303.092 103048 
2.04e-07 115.191 2.46316e+25 302.983 103037 
2.12e-07 115.267 2.46286e+25 303.234 103110 
2.2e-07 115.217 2.46459e+25 303.361 103226 
2.28e-07 115.256 2.46299e+25 303.403 103173 
2.36e-07 115.277 2.46304e+25 303.494 103206 
2.44e-07 115.242 2.46236e+25 303.487 103175 
2.52e-07 115.275 2.46333e+25 303.242 103132 
2.6e-07 115.223 2.4625e+25 303.601 103220 
2.68e-07 115.273 2.46001e+25 303.741 103163 
2.76e-07 115.316 2.45766e+25 303.836 103097 
2.84e-07 115.299 2.45968e+25 303.878 103195 
2.92e-07 115.244 2.45775e+25 303.908 103125 
3e-07 115.232 2.45716e+25 303.872 103088 
3.08e-07 115.245 2.45692e+25 303.928 103097 
3.16e-07 115.272 2.45953e+25 304.143 103279 
3.24e-07 115.307 2.45872e+25 303.933 103174 
3.32e-07 115.247 2.45198e+25 304.397 103048 
3.4e-07 115.274 2.45682e+25 304.237 103198 
3.48e-07 115.209 2.45364e+25 304.546 103169 
3.56e-07 115.227 2.45494e+25 304.291 103137 
3.64e-07 115.218 2.45859e+25 304.075 103217 
3.72e-07 115.218 2.45267e+25 304.407 103080 
3.8e-07 115.239 2.45392e+25 304.585 103194 
3.88e-07 115.264 2.45509e+25 304.242 103126 
3.96e-07 115.239 2.45578e+25 304.377 103201 
4.04e-07 115.227 2.45526e+25 304.219 103126 
4.12e-07 115.27 2.45164e+25 304.555 103088 
4.2e-07 115.251 2.45133e+25 304.547 103072 
4.28e-07 115.249 2.45514e+25 304.423 103190 
4.36e-07 115.174 2.45398e+25 304.496 103166 
4.44e-07 115.206 2.45226e+25 304.507 103097 
4.52e-07 115.269 2.44754e+25 304.779 102991 
4.6e-07 115.342 2.45052e+25 304.523 103029 
4.68e-07 115.168 2.45066e+25 304.609 103065 
4.76e-07 115.178 2.44953e+25 304.527 102989 
4.84e-07 115.187 2.45291e+25 304.539 103135 
4.92e-07 115.277 2.44967e+25 304.74 103067 
5e-07 115.245 2.45075e+25 304.687 103095 
5.08e-07 115.176 2.44976e+25 305.011 103163 
5.16e-07 115.124 2.44623e+25 305.133 103055 
5.24e-07 115.285 2.45074e+25 304.79 103129 
5.32e-07 115.243 2.45111e+25 304.795 103146 
5.4e-07 115.159 2.45141e+25 304.625 103101 
5.48e-07 115.188 2.44889e+25 304.965 103110 
5.56e-07 115.247 2.44946e+25 304.702 103045 
5.64e-07 115.264 2.44891e+25 304.862 103077 
5.72e-07 115.212 2.45098e+25 304.705 103111 
5.8e-07 115.243 2.44985e+25 304.714 103066 
5.88e-07 115.233 2.44987e+25 304.613 103033 
5.96e-07 115.241 2.45176e+25 304.478 103067 
6.04e-07 115.201 2.45061e+25 304.422 102999 
6.12e-07 115.223 2.45045e+25 304.574 103044 
6.2e-07 115.253 2.44962e+25 304.658 103037 
6.28e-07 115.143 2.45245e+25 304.68 103164 
6.36e-07 115.206 2.45182e+25 304.563 103097 
6.44e-07 115.162 2.4526e+25 304.483 103104 
6.52e-07 115.172 2.45169e+25 304.68 103132 
6.6e-07 115.252 2.45126e+25 304.634 103098 
6.68e-07 115.222 2.45252e+25 304.637 103152 
6.76e-07 115.237 2.4578e+25 304.001 103159 
6.84e-07 115.217 2.45074e+25 304.422 103005 
6.92e-07 115.241 2.45623e+25 304.246 103175 
7e-07 115.236 2.45154e+25 304.524 103073 
7.08e-07 115.273 2.45725e+25 303.951 103118 
7.16e-07 115.249 2.45488e+25 304.251 103120 
7.24e-07 115.249 2.45353e+25 304.421 103121 
7.32e-07 115.277 2.45855e+25 303.861 103142 
7.4e-07 115.139 2.45367e+25 304.067 103008 
7.48e-07 115.24 2.45829e+25 303.997 103177 
7.56e-07 115.216 2.45934e+25 303.873 103180 
7.64e-07 115.303 2.45987e+25 303.986 103240 
7.72e-07 115.306 2.46266e+25 303.467 103181 
7.8e-07 115.268 2.46062e+25 303.633 103152 
7.88e-07 115.247 2.46112e+25 303.637 103174 
7.96e-07 115.285 2.46069e+25 303.668 103167 
8.04e-07 115.222 2.46017e+25 303.826 103198 
8.12e-07 115.315 2.46222e+25 303.198 103071 
8.2e-07 115.187 2.45924e+25 303.642 103097 
8.28e-07 115.195 2.4617e+25 303.576 103178 
8.36e-07 115.235 2.46256e+25 303.504 103189 
8.44e-07 115.321 2.4638e+25 303.137 103116 
8.52e-07 115.171 2.46468e+25 303.023 103115 
8.6e-07 115.297 2.46913e+25 302.697 103189 
8.68e-07 115.29 2.46374e+25 302.918 103039 
8.76e-07 115.289 2.46891e+25 302.615 103152 
8.84e-07 115.171 2.47147e+25 302.113 103088 
8.92e-07 115.201 2.46963e+25 302.577 103169 
9e-07 115.171 2.46938e+25 302.398 103098 
9.08e-07 115.217 2.4697e+25 302.523 103154 
9.16e-07 115.194 2.47363e+25 302.299 103242 
9.24e-07 115.214 2.47083e+25 302.274 103116 
9.32e-07 115.337 2.47604e+25 302.027 103249 
9.4e-07 115.245 2.4711e+25 302.001 103034 
9.48e-07 115.272 2.47258e+25 302.022 103103 
9.56e-07 115.276 2.47404e+25 301.881 103116 
9.64e-07 115.183 2.47418e+25 301.797 103093 
9.72e-07 115.157 2.47551e+25 301.83 103160 
9.8e-07 115.078 2.47147e+25 301.993 103047 
9.88e-07 115.045 2.47455e+25 301.585 103036 
9.96e-07 115.311 2.49675e+25 300.584 103615 
