ITEM: TIMESTEP
500000
ITEM: NUMBER OF CELLS
125
ITEM: BOX BOUNDS pp ss pp
0 1e-06
0 1e-06
0 1e-06
ITEM: CELLS yc f_rho[1] f_rho[2] f_state[1] f_state[2] 
4e-09 115.508 2.53181e+25 297.17 103877 
1.2e-08 115.691 2.495e+25 298.986 102992 
2e-08 115.65 2.49263e+25 299.301 103003 
2.8e-08 115.651 2.48358e+25 299.955 102853 
3.6e-08 115.67 2.48106e+25 299.925 102738 
4.4e-08 115.649 2.48163e+25 299.957 102773 
5.2e-08 115.653 2.47847e+25 300.271 102750 
6e-08 115.698 2.478e+25 300.488 102804 
6.8e-08 115.66 2.4751e+25 300.667 102745 
7.6e-08 115.785 2.47754e+25 300.597 102823 
8.4e-08 115.729 2.47784e+25 300.644 102851 
9.2e-08 115.789 2.47579e+25 300.654 102769 
1e-07 115.747 2.47447e+25 300.889 102795 
1.08e-07 115.67 2.47606e+25 300.782 102824 
1.16e-07 115.73 2.4697e+25 301.211 102706 
1.24e-07 115.742 2.47071e+25 301.314 102784 
1.32e-07 115.715 2.47362e+25 301.125 102840 
1.4e-07 115.742 2.4718e+25 301.244 102805 
1.48e-07 115.736 2.46969e+25 301.681 102867 
1.56e-07 115.683 2.4699e+25 301.583 102842 
1.64e-07 115.62 2.46449e+25 301.762 102677 
1.72e-07 115.653 2.46414e+25 301.735 102654 
1.8e-07 115.731 2.46499e+25 301.876 102737 
1.88e-07 115.674 2.46377e+25 302.108 102765 
1.96e-07 115.706 2.46266e+25 302.197 102749 
2.04e-07 115.735 2.46047e+25 302.172 102649 
2.12e-07 115.722 2.4598e+25 302.393 102696 
2.2e-07 115.694 2.46034e+25 302.236 102665 
2.28e-07 115.791 2.46425e+25 301.954 102733 
2.36e-07 115.661 2.46164e+25 302.182 102701 
2.44e-07 115.773 2.45739e+25 302.592 102663 
2.52e-07 115.719 2.45887e+25 302.527 102703 
2.6e-07 115.706 2.45852e+25 302.529 102689 
2.68e-07 115.68 2.45468e+25 302.839 102634 
2.76e-07 115.736 2.45662e+25 302.759 102688 
2.84e-07 115.673 2.45948e+25 302.516 102725 
2.92e-07 115.61 2.4549e+25 302.822 102637 
3e-07 115.723 2.45596e+25 302.782 102668 
3.08e-07 115.613 2.45248e+25 303.18 102657 
3.16e-07 115.67 2.45432e+25 303.09 102704 
3.24e-07 115.779 2.45776e+25 302.855 102768 
3.32e-07 115.697 2.45415e+25 303.237 102746 
3.4e-07 115.764 2.45498e+25 303.22 102775 
3.48e-07 115.645 2.45144e+25 303.416 102694 
3.56e-07 115.602 2.45107e+25 303.687 102770 
3.64e-07 115.721 2.45374e+25 303.479 102811 
3.72e-07 115.771 2.45286e+25 303.59 102812 
3.8e-07 115.672 2.45222e+25 303.554 102773 
3.88e-07 115.678 2.45201e+25 303.535 102758 
3.96e-07 115.742 2.45229e+25 303.614 102796 
4.04e-07 115.723 2.451e+25 303.75 102788 
4.12e-07 115.671 2.44841e+25 303.858 102716 
4.2e-07 115.698 2.45091e+25 303.892 102832 
4.28e-07 115.739 2.45257e+25 303.724 102845 
4.36e-07 115.729 2.44517e+25 303.873 102585 
4.44e-07 115.654 2.44801e+25 303.88 102706 
4.52e-07 115.666 2.44644e+25 303.96 102668 
4.6e-07 115.628 2.44643e+25 304.036 102693 
4.68e-07 115.703 2.44729e+25 303.715 102621 
4.76e-07 115.655 2.44829e+25 303.77 102681 
4.84e-07 115.661 2.44929e+25 303.903 102768 
4.92e-07 115.63 2.44485e+25 304.224 102690 
5e-07 115.723 2.44912e+25 304.013 102798 
5.08e-07 115.576 2.44593e+25 303.909 102629 
5.16e-07 115.795 2.44882e+25 303.983 102775 
5.24e-07 115.731 2.44646e+25 304.078 102709 
5.32e-07 115.694 2.45032e+25 303.781 102770 
5.4e-07 115.644 2.45039e+25 303.691 102742 
5.48e-07 115.67 2.44592e+25 303.854 102610 
5.56e-07 115.664 2.45079e+25 303.651 102746 
5.64e-07 115.74 2.44658e+25 303.722 102594 
5.72e-07 115.63 2.44583e+25 303.833 102599 
5.8e-07 115.764 2.44737e+25 303.583 102579 
5.88e-07 115.728 2.44689e+25 303.746 102614 
5.96e-07 115.689 2.4484e+25 303.681 102656 
6.04e-07 115.637 2.44895e+25 303.802 102720 
6.12e-07 115.665 2.44781e+25 303.842 102686 
6.2e-07 115.745 2.45047e+25 303.701 102749 
6.28e-07 115.676 2.4504e+25 303.717 102752 
6.36e-07 115.682 2.44914e+25 303.568 102649 
6.44e-07 115.732 2.45262e+25 303.555 102790 
6.52e-07 115.662 2.45214e+25 303.359 102703 
6.6e-07 115.661 2.45315e+25 303.203 102693 
6.68e-07 115.717 2.45276e+25 303.233 102687 
6.76e-07 115.77 2.45407e+25 303.02 102670 
6.84e-07 115.695 2.45217e+25 303.137 102630 
6.92e-07 115.702 2.45364e+25 303.245 102727 
7e-07 115.638 2.45397e+25 303.341 102774 
7.08e-07 115.684 2.45102e+25 303.478 102697 
7.16e-07 115.721 2.45488e+25 303.054 102715 
7.24e-07 115.648 2.45382e+25 302.809 102587 
7.32e-07 115.675 2.45455e+25 303.046 102698 
7.4e-07 115.621 2.45399e+25 302.9 102626 
7.48e-07 115.676 2.45483e+25 303.1 102728 
7.56e-07 115.721 2.45674e+25 302.882 102734 
7.64e-07 115.69 2.45715e+25 302.869 102747 
7.72e-07 115.662 2.45818e+25 302.823 102775 
7.8e-07 115.7 2.45883e+25 302.786 102789 
7.88e-07 115.717 2.4568e+25 302.739 102688 
7.96e-07 115.773 2.45831e+25 302.653 102723 
8.04e-07 115.649 2.45778e+25 302.479 102641 
8.12e-07 115.597 2.46047e+25 302.297 102692 
8.2e-07 115.637 2.46034e+25 302.683 102818 
8.28e-07 115.73 2.4595e+25 302.472 102711 
8.36e-07 115.685 2.46317e+25 302.161 102758 
8.44e-07 115.745 2.46137e+25 302.091 102659 
8.52e-07 115.747 2.46637e+25 301.988 102833 
8.6e-07 115.741 2.46698e+25 301.686 102755 
8.68e-07 115.738 2.46678e+25 301.662 102739 
8.76e-07 115.701 2.46633e+25 301.689 102729 
8.84e-07 115.696 2.46762e+25 301.46 102705 
8.92e-07 115.704 2.46772e+25 301.522 102730 
9e-07 115.74 2.46786e+25 301.309 102663 
9.08e-07 115.674 2.46952e+25 301.356 102748 
9.16e-07 115.685 2.47063e+25 301.111 102711 
9.24e-07 115.666 2.4722e+25 300.954 102723 
9.32e-07 115.653 2.47202e+25 300.711 102633 
9.4e-07 115.704 2.47625e+25 300.683 102798 
9.48e-07 115.697 2.47819e+25 300.324 102756 
9.56e-07 115.73 2.4785e+25 300.601 102864 
9.64e-07 115.696 2.47827e+25 300.394 102783 
9.72e-07 115.671 2.47902e+25 300.232 102759 
9.8e-07 115.669 2.48729e+25 299.736 102932 
9.88e-07 115.603 2.49129e+25 299.583 103044 
9.96e-07 115.538 2.5306e+25 297.574 103968 
