ITEM: TIMESTEP
500000
ITEM: NUMBER OF CELLS
125
ITEM: BOX BOUNDS pp ss pp
0 0.0001
0 1e-06
0 0.0001
ITEM: CELLS yc f_rho[1] f_rho[2] f_state[1] f_state[2] 
4e-09 115.495 2.49701e+25 299.734 103333 
1.2e-08 115.858 2.49277e+25 299.524 103085 
2e-08 115.88 2.48776e+25 299.765 102961 
2.8e-08 115.848 2.4874e+25 299.895 102991 
3.6e-08 115.874 2.47905e+25 300.214 102754 
4.4e-08 115.86 2.48005e+25 300.135 102768 
5.2e-08 115.944 2.47899e+25 300.236 102759 
6e-08 115.927 2.4784e+25 300.405 102792 
6.8e-08 115.95 2.47499e+25 300.737 102764 
7.6e-08 115.968 2.47432e+25 300.629 102700 
8.4e-08 115.871 2.47235e+25 300.797 102675 
9.2e-08 115.859 2.47362e+25 300.729 102705 
1e-07 115.948 2.47154e+25 300.808 102645 
1.08e-07 115.988 2.47438e+25 300.81 102764 
1.16e-07 115.892 2.47272e+25 300.854 102710 
1.24e-07 115.951 2.47248e+25 300.98 102743 
1.32e-07 115.97 2.47263e+25 301.076 102782 
1.4e-07 115.909 2.46903e+25 301.232 102686 
1.48e-07 115.879 2.46797e+25 301.075 102589 
1.56e-07 115.867 2.46319e+25 301.734 102614 
1.64e-07 115.879 2.46406e+25 301.579 102597 
1.72e-07 115.914 2.46485e+25 301.706 102673 
1.8e-07 115.899 2.46351e+25 302.038 102730 
1.88e-07 115.894 2.4639e+25 301.887 102695 
1.96e-07 115.945 2.46144e+25 302.041 102645 
2.04e-07 115.873 2.46172e+25 302.002 102644 
2.12e-07 115.867 2.46031e+25 302.209 102655 
2.2e-07 115.921 2.46111e+25 302.228 102695 
2.28e-07 115.909 2.46053e+25 302.199 102661 
2.36e-07 115.934 2.45967e+25 302.051 102575 
2.44e-07 115.808 2.45865e+25 302.306 102619 
2.52e-07 115.875 2.45385e+25 302.643 102532 
2.6e-07 115.933 2.45478e+25 302.763 102612 
2.68e-07 115.862 2.45546e+25 302.544 102566 
2.76e-07 115.786 2.45598e+25 302.635 102619 
2.84e-07 115.783 2.45354e+25 302.668 102528 
2.92e-07 115.784 2.455e+25 302.652 102584 
3e-07 115.864 2.45339e+25 302.765 102555 
3.08e-07 115.882 2.45323e+25 302.887 102589 
3.16e-07 115.896 2.45464e+25 302.911 102656 
3.24e-07 115.88 2.45176e+25 303.119 102606 
3.32e-07 115.905 2.45391e+25 302.966 102645 
3.4e-07 115.876 2.45129e+25 303.053 102565 
3.48e-07 115.791 2.45096e+25 303.063 102554 
3.56e-07 115.917 2.45207e+25 303.061 102600 
3.64e-07 115.941 2.45192e+25 303.139 102620 
3.72e-07 115.854 2.45308e+25 303.038 102634 
3.8e-07 115.975 2.45293e+25 302.837 102560 
3.88e-07 115.828 2.45244e+25 302.963 102582 
3.96e-07 115.896 2.45418e+25 303.222 102743 
4.04e-07 115.976 2.45362e+25 303.121 102685 
4.12e-07 115.952 2.45125e+25 303.136 102591 
4.2e-07 115.907 2.45041e+25 302.987 102505 
4.28e-07 115.875 2.44929e+25 303.157 102516 
4.36e-07 115.931 2.45187e+25 303.212 102643 
4.44e-07 115.917 2.45309e+25 302.954 102606 
4.52e-07 115.86 2.44925e+25 303.377 102589 
4.6e-07 115.825 2.45134e+25 303.215 102621 
4.68e-07 115.793 2.44855e+25 303.429 102577 
4.76e-07 115.945 2.45193e+25 303.435 102720 
4.84e-07 115.862 2.44976e+25 303.652 102703 
4.92e-07 115.904 2.4499e+25 303.517 102663 
5e-07 115.834 2.44776e+25 303.501 102568 
5.08e-07 115.9 2.45136e+25 303.496 102717 
5.16e-07 115.905 2.44907e+25 303.53 102633 
5.24e-07 115.933 2.44971e+25 303.438 102629 
5.32e-07 115.913 2.45152e+25 303.364 102679 
5.4e-07 115.873 2.45275e+25 303.35 102726 
5.48e-07 115.903 2.45046e+25 303.406 102649 
5.56e-07 115.845 2.44689e+25 303.668 102588 
5.64e-07 115.896 2.44926e+25 303.503 102631 
5.72e-07 115.874 2.44793e+25 303.395 102540 
5.8e-07 115.833 2.44595e+25 303.638 102539 
5.88e-07 115.926 2.44931e+25 303.27 102555 
5.96e-07 115.848 2.45002e+25 303.115 102532 
6.04e-07 115.936 2.45243e+25 302.971 102584 
6.12e-07 115.891 2.45062e+25 303.148 102568 
6.2e-07 115.908 2.45291e+25 303.156 102667 
6.28e-07 115.852 2.45107e+25 303.172 102595 
6.36e-07 115.866 2.45424e+25 302.874 102627 
6.44e-07 115.88 2.45367e+25 302.969 102635 
6.52e-07 115.839 2.45287e+25 302.843 102559 
6.6e-07 115.919 2.45406e+25 302.979 102655 
6.68e-07 115.918 2.45284e+25 302.903 102579 
6.76e-07 115.948 2.45306e+25 303.127 102664 
6.84e-07 115.847 2.45058e+25 302.855 102468 
6.92e-07 115.886 2.45392e+25 302.914 102627 
7e-07 115.9 2.45877e+25 302.651 102741 
7.08e-07 115.926 2.45614e+25 302.74 102661 
7.16e-07 115.901 2.45574e+25 302.729 102641 
7.24e-07 115.938 2.45632e+25 302.685 102650 
7.32e-07 115.939 2.46085e+25 302.311 102713 
7.4e-07 115.921 2.46084e+25 302.23 102685 
7.48e-07 115.932 2.45722e+25 302.358 102577 
7.56e-07 115.996 2.45996e+25 302.366 102694 
7.64e-07 115.961 2.45944e+25 302.545 102733 
7.72e-07 115.946 2.46048e+25 302.113 102630 
7.8e-07 115.897 2.46236e+25 302.263 102759 
7.88e-07 115.851 2.45923e+25 302.502 102709 
7.96e-07 115.873 2.46101e+25 302.217 102687 
8.04e-07 115.893 2.46171e+25 301.979 102635 
8.12e-07 115.836 2.46241e+25 302.016 102677 
8.2e-07 115.912 2.46106e+25 302.192 102681 
8.28e-07 115.877 2.46242e+25 301.924 102646 
8.36e-07 115.989 2.46379e+25 301.934 102707 
8.44e-07 115.952 2.46225e+25 302.109 102702 
8.52e-07 115.871 2.46454e+25 301.777 102685 
8.6e-07 115.952 2.46591e+25 301.59 102678 
8.68e-07 115.918 2.46539e+25 301.552 102644 
8.76e-07 115.853 2.46664e+25 301.339 102623 
8.84e-07 115.875 2.4686e+25 301.225 102665 
8.92e-07 115.938 2.46715e+25 301.204 102598 
9e-07 115.947 2.46735e+25 301.226 102614 
9.08e-07 115.875 2.47281e+25 301.265 102854 
9.16e-07 115.799 2.47306e+25 300.797 102705 
9.24e-07 115.89 2.47389e+25 300.461 102625 
9.32e-07 115.927 2.47176e+25 300.873 102677 
9.4e-07 115.903 2.47537e+25 300.725 102776 
9.48e-07 115.838 2.47839e+25 300.362 102777 
9.56e-07 115.9 2.47892e+25 300.41 102816 
9.64e-07 115.862 2.4799e+25 300.202 102785 
9.72e-07 115.88 2.48519e+25 299.963 102923 
9.8e-07 115.868 2.48515e+25 300.013 102938 
9.88e-07 115.911 2.49065e+25 299.886 103122 
9.96e-07 115.541 2.49261e+25 300.092 103274 
