ITEM: TIMESTEP
500000
ITEM: NUMBER OF CELLS
125
ITEM: BOX BOUNDS pp ss pp
0 0.0001
0 1e-06
0 0.0001
ITEM: CELLS yc f_rho[1] f_rho[2] f_state[1] f_state[2] 
4e-09 117.142 2.66287e+25 290.823 106921 
1.2e-08 116.707 2.49593e+25 297.71 102591 
2e-08 117.027 2.49961e+25 297.556 102689 
2.8e-08 117.04 2.48983e+25 298.163 102496 
3.6e-08 117.046 2.48543e+25 298.409 102399 
4.4e-08 116.998 2.48442e+25 298.093 102249 
5.2e-08 117.076 2.48512e+25 298.171 102305 
6e-08 116.976 2.47662e+25 298.833 102181 
6.8e-08 117.033 2.47532e+25 298.805 102118 
7.6e-08 117.016 2.47693e+25 298.761 102169 
8.4e-08 116.994 2.47242e+25 299.089 102095 
9.2e-08 116.961 2.47275e+25 299.13 102123 
1e-07 117.027 2.46704e+25 299.161 101898 
1.08e-07 117.011 2.46768e+25 299.221 101945 
1.16e-07 117.045 2.46606e+25 299.69 102037 
1.24e-07 117.076 2.46675e+25 299.566 102024 
1.32e-07 117.057 2.46544e+25 299.703 102016 
1.4e-07 117.004 2.46129e+25 300.1 101979 
1.48e-07 117.012 2.46409e+25 300.155 102114 
1.56e-07 116.946 2.45762e+25 300.328 101904 
1.64e-07 117.086 2.45856e+25 300.216 101906 
1.72e-07 116.984 2.45609e+25 300.651 101951 
1.8e-07 117.025 2.45813e+25 300.573 102009 
1.88e-07 117.092 2.46107e+25 300.448 102088 
1.96e-07 116.985 2.45604e+25 300.489 101894 
2.04e-07 116.968 2.45299e+25 300.826 101881 
2.12e-07 116.964 2.45612e+25 300.7 101968 
2.2e-07 116.993 2.45722e+25 300.757 102033 
2.28e-07 117.004 2.45356e+25 300.735 101874 
2.36e-07 116.985 2.45429e+25 300.768 101916 
2.44e-07 117.077 2.45469e+25 301.114 102049 
2.52e-07 117.027 2.45368e+25 301.014 101973 
2.6e-07 116.956 2.45023e+25 301.235 101905 
2.68e-07 116.933 2.45038e+25 301.322 101941 
2.76e-07 117.016 2.45126e+25 301.273 101961 
2.84e-07 116.995 2.45478e+25 301.261 102103 
2.92e-07 117.03 2.44423e+25 301.737 101825 
3e-07 117.038 2.45217e+25 301.522 102083 
3.08e-07 116.982 2.44816e+25 301.71 101980 
3.16e-07 116.984 2.45001e+25 301.371 101942 
3.24e-07 117.038 2.44635e+25 301.566 101855 
3.32e-07 117.009 2.44956e+25 301.422 101940 
3.4e-07 116.974 2.44668e+25 301.747 101930 
3.48e-07 116.974 2.44655e+25 301.442 101822 
3.56e-07 116.943 2.4511e+25 301.233 101940 
3.64e-07 117.005 2.44773e+25 301.383 101851 
3.72e-07 117.011 2.45213e+25 301.297 102005 
3.8e-07 116.894 2.44545e+25 301.512 101800 
3.88e-07 116.963 2.4489e+25 301.183 101832 
3.96e-07 116.943 2.44891e+25 301.64 101987 
4.04e-07 117.005 2.44965e+25 301.508 101973 
4.12e-07 117.033 2.45051e+25 301.407 101974 
4.2e-07 116.927 2.44535e+25 301.56 101812 
4.28e-07 116.909 2.44872e+25 301.444 101913 
4.36e-07 116.961 2.44455e+25 301.552 101775 
4.44e-07 116.972 2.44566e+25 301.754 101890 
4.52e-07 116.972 2.4454e+25 301.721 101868 
4.6e-07 116.999 2.44533e+25 301.71 101861 
4.68e-07 116.962 2.44471e+25 301.723 101840 
4.76e-07 116.876 2.44425e+25 301.929 101891 
4.84e-07 116.977 2.44838e+25 301.68 101978 
4.92e-07 116.994 2.44597e+25 301.704 101886 
5e-07 116.988 2.44095e+25 302.239 101857 
5.08e-07 116.992 2.44365e+25 301.894 101854 
5.16e-07 117.056 2.44998e+25 301.713 102056 
5.24e-07 116.999 2.44539e+25 301.754 101879 
5.32e-07 117.063 2.44693e+25 301.584 101886 
5.4e-07 117.017 2.44747e+25 301.343 101827 
5.48e-07 117.028 2.44647e+25 301.751 101923 
5.56e-07 116.873 2.44484e+25 301.888 101901 
5.64e-07 116.902 2.44718e+25 301.734 101947 
5.72e-07 116.941 2.44905e+25 301.578 101972 
5.8e-07 116.976 2.4499e+25 301.353 101931 
5.88e-07 116.988 2.44969e+25 301.684 102035 
5.96e-07 117.001 2.4456e+25 301.786 101899 
6.04e-07 116.994 2.44658e+25 301.892 101975 
6.12e-07 116.959 2.44577e+25 301.819 101917 
6.2e-07 117.004 2.44731e+25 301.769 101964 
6.28e-07 116.987 2.44795e+25 301.555 101919 
6.36e-07 116.996 2.45006e+25 301.415 101959 
6.44e-07 117.017 2.44672e+25 301.594 101880 
6.52e-07 116.975 2.44812e+25 301.543 101921 
6.6e-07 116.981 2.44717e+25 301.418 101840 
6.68e-07 116.979 2.44559e+25 301.588 101831 
6.76e-07 116.984 2.44823e+25 301.491 101908 
6.84e-07 116.954 2.44698e+25 301.181 101751 
6.92e-07 117.05 2.45204e+25 301.255 101987 
7e-07 117.013 2.44895e+25 301.399 101908 
7.08e-07 117.007 2.45407e+25 300.914 101956 
7.16e-07 116.983 2.44908e+25 301.168 101834 
7.24e-07 116.953 2.44959e+25 301.331 101911 
7.32e-07 116.93 2.45079e+25 301.229 101926 
7.4e-07 117.049 2.45232e+25 301.088 101942 
7.48e-07 117.032 2.45172e+25 301.155 101940 
7.56e-07 116.964 2.45258e+25 300.818 101862 
7.64e-07 116.997 2.45066e+25 301.089 101873 
7.72e-07 117.037 2.45256e+25 300.951 101906 
7.8e-07 117.022 2.45285e+25 300.832 101877 
7.88e-07 117.046 2.45963e+25 300.39 102009 
7.96e-07 117.012 2.45976e+25 300.26 101970 
8.04e-07 117.049 2.45685e+25 300.592 101962 
8.12e-07 116.997 2.46206e+25 300.294 102077 
8.2e-07 117.044 2.46279e+25 300.189 102072 
8.28e-07 116.997 2.46138e+25 300.339 102064 
8.36e-07 116.994 2.45917e+25 300.441 102007 
8.44e-07 117.057 2.46438e+25 300.087 102103 
8.52e-07 117.085 2.46403e+25 299.721 101964 
8.6e-07 117.037 2.46099e+25 299.825 101873 
8.68e-07 116.971 2.46254e+25 299.628 101871 
8.76e-07 117.006 2.46564e+25 299.438 101934 
8.84e-07 117 2.46773e+25 299.402 102008 
8.92e-07 117.035 2.47121e+25 299.07 102039 
9e-07 117.028 2.47081e+25 299.102 102033 
9.08e-07 117.017 2.47194e+25 299.063 102067 
9.16e-07 117.034 2.47845e+25 298.667 102200 
9.24e-07 117.025 2.47398e+25 298.533 101970 
9.32e-07 117.087 2.48241e+25 298.223 102211 
9.4e-07 117.024 2.47711e+25 298.334 102031 
9.48e-07 116.994 2.47999e+25 298.281 102131 
9.56e-07 117.075 2.48235e+25 298.183 102195 
9.64e-07 116.995 2.48586e+25 298.028 102286 
9.72e-07 116.892 2.49188e+25 297.974 102516 
9.8e-07 116.921 2.49739e+25 297.433 102556 
9.88e-07 116.662 2.49727e+25 297.6 102608 
9.96e-07 117.094 2.66346e+25 290.642 106878 
