ITEM: TIMESTEP
500000
ITEM: NUMBER OF CELLS
125
ITEM: BOX BOUNDS pp ss pp
0 0.0001
0 1e-06
0 0.0001
ITEM: CELLS yc f_rho[1] f_rho[2] f_state[1] f_state[2] 
4e-09 110.087 2.46342e+25 300.04 102047 
1.2e-08 110.089 2.46348e+25 299.998 102035 
2e-08 110.096 2.46363e+25 300.191 102107 
2.8e-08 110.073 2.46312e+25 299.853 101971 
3.6e-08 110.011 2.46172e+25 300.063 101985 
4.4e-08 110.01 2.46169e+25 300.03 101972 
5.2e-08 109.984 2.46112e+25 300.018 101945 
6e-08 109.994 2.46135e+25 299.663 101833 
6.8e-08 110.036 2.46229e+25 299.793 101916 
7.6e-08 110.048 2.46256e+25 299.831 101941 
8.4e-08 110.041 2.4624e+25 299.777 101915 
9.2e-08 110.072 2.46309e+25 299.866 101974 
1e-07 109.937 2.46006e+25 299.916 101866 
1.08e-07 109.97 2.46081e+25 299.894 101889 
1.16e-07 110.094 2.46357e+25 299.759 101958 
1.24e-07 110.024 2.46202e+25 299.776 101900 
1.32e-07 109.985 2.46114e+25 299.959 101925 
1.4e-07 110.052 2.46263e+25 299.958 101987 
1.48e-07 110.056 2.46272e+25 299.84 101950 
1.56e-07 110.035 2.46226e+25 299.862 101939 
1.64e-07 110.079 2.46323e+25 299.773 101949 
1.72e-07 109.987 2.46118e+25 299.917 101913 
1.8e-07 109.91 2.45946e+25 299.964 101857 
1.88e-07 109.903 2.45931e+25 299.972 101853 
1.96e-07 110.015 2.46181e+25 299.772 101889 
2.04e-07 109.962 2.46062e+25 299.875 101875 
2.12e-07 109.91 2.45947e+25 299.925 101845 
2.2e-07 109.89 2.45901e+25 300.083 101879 
2.28e-07 110.014 2.46179e+25 299.968 101955 
2.36e-07 109.977 2.46095e+25 300.015 101937 
2.44e-07 109.979 2.46101e+25 299.707 101834 
2.52e-07 109.986 2.46116e+25 299.854 101890 
2.6e-07 110.054 2.46268e+25 299.826 101944 
2.68e-07 109.92 2.45968e+25 300.1 101913 
2.76e-07 109.994 2.46134e+25 299.871 101903 
2.84e-07 109.918 2.45963e+25 300.075 101902 
2.92e-07 109.925 2.45979e+25 300.176 101943 
3e-07 110.001 2.46151e+25 300.109 101991 
3.08e-07 109.917 2.45962e+25 300.238 101957 
3.16e-07 109.907 2.4594e+25 299.925 101841 
3.24e-07 109.926 2.45982e+25 300.038 101897 
3.32e-07 109.963 2.46066e+25 299.947 101901 
3.4e-07 109.99 2.46124e+25 300.059 101963 
3.48e-07 109.866 2.45848e+25 300.039 101842 
3.56e-07 109.919 2.45966e+25 300.122 101919 
3.64e-07 109.909 2.45944e+25 300.279 101963 
3.72e-07 109.922 2.45973e+25 300.094 101913 
3.8e-07 109.878 2.45874e+25 299.902 101806 
3.88e-07 109.948 2.46031e+25 299.808 101839 
3.96e-07 109.914 2.45956e+25 299.842 101820 
4.04e-07 109.915 2.45958e+25 299.878 101833 
4.12e-07 109.905 2.45935e+25 300.216 101938 
4.2e-07 109.858 2.45829e+25 300.121 101862 
4.28e-07 109.789 2.45676e+25 300.443 101908 
4.36e-07 109.88 2.45878e+25 300.403 101978 
4.44e-07 109.955 2.46047e+25 299.936 101890 
4.52e-07 109.916 2.4596e+25 299.956 101860 
4.6e-07 109.944 2.46022e+25 300.093 101933 
4.68e-07 110.002 2.46151e+25 300.201 102023 
4.76e-07 110.044 2.46246e+25 300.081 102021 
4.84e-07 109.987 2.46119e+25 299.907 101910 
4.92e-07 110.011 2.46173e+25 300.008 101966 
5e-07 110.006 2.4616e+25 300.158 102012 
5.08e-07 109.924 2.45977e+25 300.066 101905 
5.16e-07 109.953 2.46043e+25 300.022 101917 
5.24e-07 110.043 2.46243e+25 300.152 102044 
5.32e-07 110.069 2.46303e+25 299.882 101977 
5.4e-07 110.059 2.46279e+25 300.006 102009 
5.48e-07 110.003 2.46154e+25 300.155 102009 
5.56e-07 109.993 2.46133e+25 300.207 102017 
5.64e-07 109.975 2.46093e+25 300.203 101999 
5.72e-07 110.025 2.46203e+25 300.142 102024 
5.8e-07 110.06 2.46282e+25 300.136 102055 
5.88e-07 110.041 2.46238e+25 300.323 102100 
5.96e-07 110.149 2.4648e+25 299.944 102072 
6.04e-07 110.078 2.46323e+25 300.098 102059 
6.12e-07 110.063 2.46289e+25 300.094 102044 
6.2e-07 110.103 2.46378e+25 300.086 102078 
6.28e-07 110.089 2.46347e+25 300.018 102042 
6.36e-07 110.023 2.462e+25 300.054 101993 
6.44e-07 109.99 2.46124e+25 300.025 101952 
6.52e-07 110.062 2.46287e+25 300.182 102072 
6.6e-07 110.067 2.46298e+25 300.062 102036 
6.68e-07 110.094 2.46358e+25 300.109 102077 
6.76e-07 110.015 2.46182e+25 300.105 102003 
6.84e-07 109.986 2.46116e+25 300.15 101991 
6.92e-07 110.115 2.46405e+25 300.099 102093 
7e-07 109.952 2.46041e+25 300.297 102010 
7.08e-07 110.015 2.46182e+25 300.243 102050 
7.16e-07 109.984 2.46111e+25 300.35 102057 
7.24e-07 109.952 2.46039e+25 300.388 102040 
7.32e-07 109.956 2.46048e+25 300.382 102042 
7.4e-07 109.972 2.46085e+25 300.22 102002 
7.48e-07 110.014 2.46179e+25 300.142 102014 
7.56e-07 109.926 2.45982e+25 300.234 101964 
7.64e-07 109.912 2.4595e+25 300.278 101966 
7.72e-07 110.011 2.46172e+25 300.189 102027 
7.8e-07 110.076 2.46317e+25 300.013 102027 
7.88e-07 110.056 2.46272e+25 300.061 102025 
7.96e-07 110.048 2.46254e+25 299.881 101957 
8.04e-07 110.064 2.4629e+25 299.997 102011 
8.12e-07 110.005 2.46159e+25 300.139 102005 
8.2e-07 110.072 2.46308e+25 299.761 101938 
8.28e-07 110.049 2.46258e+25 299.758 101917 
8.36e-07 109.988 2.46121e+25 299.901 101908 
8.44e-07 109.963 2.46064e+25 299.897 101883 
8.52e-07 109.96 2.46058e+25 299.972 101906 
8.6e-07 109.992 2.4613e+25 299.761 101864 
8.68e-07 110.002 2.46152e+25 299.97 101945 
8.76e-07 110.083 2.46333e+25 299.83 101972 
8.84e-07 110.085 2.46339e+25 299.867 101987 
8.92e-07 110.097 2.46364e+25 299.955 102027 
9e-07 110.032 2.4622e+25 299.939 101962 
9.08e-07 110.023 2.462e+25 300.028 101984 
9.16e-07 109.996 2.46139e+25 299.986 101945 
9.24e-07 109.936 2.46004e+25 300.048 101910 
9.32e-07 109.946 2.46026e+25 300.016 101908 
9.4e-07 110.016 2.46183e+25 300.215 102041 
9.48e-07 109.998 2.46143e+25 300.082 101979 
9.56e-07 109.985 2.46115e+25 300.02 101946 
9.64e-07 110.074 2.46313e+25 299.87 101977 
9.72e-07 110.073 2.4631e+25 299.956 102005 
9.8e-07 110.113 2.46401e+25 299.981 102051 
9.88e-07 110.1 2.46371e+25 299.826 101986 
9.96e-07 110.112 2.46399e+25 299.845 102004 
