ITEM: TIMESTEP
500000
ITEM: NUMBER OF CELLS
125
ITEM: BOX BOUNDS pp ss pp
0 0.0001
0 1e-06
0 0.0001
ITEM: CELLS yc f_rho[1] f_rho[2] f_state[1] f_state[2] 
4e-09 113.927 2.47816e+25 299.634 102519 
1.2e-08 113.565 2.46643e+25 300.072 102183 
2e-08 113.605 2.46882e+25 300.06 102278 
2.8e-08 113.575 2.46557e+25 300.168 102180 
3.6e-08 113.572 2.46855e+25 300.114 102285 
4.4e-08 113.62 2.46785e+25 300.06 102237 
5.2e-08 113.598 2.46515e+25 300.185 102168 
6e-08 113.604 2.46561e+25 300.24 102206 
6.8e-08 113.591 2.46494e+25 300.246 102180 
7.6e-08 113.547 2.46358e+25 300.406 102178 
8.4e-08 113.592 2.46315e+25 300.423 102166 
9.2e-08 113.57 2.46465e+25 300.262 102174 
1e-07 113.574 2.46591e+25 300.296 102238 
1.08e-07 113.526 2.46318e+25 300.19 102088 
1.16e-07 113.594 2.46327e+25 300.497 102196 
1.24e-07 113.542 2.46297e+25 300.601 102219 
1.32e-07 113.618 2.46539e+25 300.441 102265 
1.4e-07 113.623 2.46394e+25 300.365 102179 
1.48e-07 113.618 2.46485e+25 300.352 102213 
1.56e-07 113.51 2.46086e+25 300.522 102105 
1.64e-07 113.581 2.46317e+25 300.425 102168 
1.72e-07 113.607 2.46159e+25 300.787 102225 
1.8e-07 113.622 2.46145e+25 300.997 102291 
1.88e-07 113.616 2.46253e+25 300.777 102261 
1.96e-07 113.615 2.45902e+25 300.922 102164 
2.04e-07 113.619 2.46072e+25 300.696 102158 
2.12e-07 113.621 2.45946e+25 300.836 102153 
2.2e-07 113.639 2.46289e+25 300.771 102274 
2.28e-07 113.622 2.46205e+25 300.589 102177 
2.36e-07 113.673 2.46008e+25 300.411 102035 
2.44e-07 113.605 2.4586e+25 300.647 102053 
2.52e-07 113.61 2.45891e+25 300.703 102085 
2.6e-07 113.559 2.45588e+25 300.836 102005 
2.68e-07 113.587 2.45708e+25 301.018 102116 
2.76e-07 113.578 2.45468e+25 300.996 102009 
2.84e-07 113.595 2.45794e+25 300.885 102107 
2.92e-07 113.647 2.46239e+25 300.669 102219 
3e-07 113.56 2.45888e+25 300.864 102139 
3.08e-07 113.637 2.46357e+25 300.576 102235 
3.16e-07 113.607 2.46078e+25 300.764 102184 
3.24e-07 113.541 2.4592e+25 300.87 102154 
3.32e-07 113.584 2.46027e+25 300.759 102161 
3.4e-07 113.627 2.46034e+25 300.506 102078 
3.48e-07 113.628 2.46026e+25 300.665 102128 
3.56e-07 113.581 2.45959e+25 300.644 102094 
3.64e-07 113.555 2.45912e+25 300.887 102157 
3.72e-07 113.598 2.45918e+25 300.985 102192 
3.8e-07 113.634 2.46025e+25 300.958 102228 
3.88e-07 113.565 2.45838e+25 300.965 102152 
3.96e-07 113.608 2.4621e+25 300.673 102208 
4.04e-07 113.587 2.46093e+25 300.57 102124 
4.12e-07 113.591 2.46128e+25 300.785 102211 
4.2e-07 113.593 2.46118e+25 300.704 102180 
4.28e-07 113.62 2.46238e+25 300.602 102195 
4.36e-07 113.603 2.46186e+25 300.734 102218 
4.44e-07 113.555 2.46174e+25 300.791 102233 
4.52e-07 113.574 2.45794e+25 301.061 102167 
4.6e-07 113.553 2.45831e+25 301 102161 
4.68e-07 113.638 2.46011e+25 300.892 102199 
4.76e-07 113.607 2.45935e+25 301.021 102211 
4.84e-07 113.627 2.45979e+25 301.095 102255 
4.92e-07 113.578 2.45539e+25 301.34 102155 
5e-07 113.581 2.456e+25 301.188 102129 
5.08e-07 113.564 2.45481e+25 301.079 102043 
5.16e-07 113.616 2.45522e+25 301.256 102120 
5.24e-07 113.571 2.45469e+25 301.332 102123 
5.32e-07 113.647 2.45652e+25 301.259 102175 
5.4e-07 113.561 2.45574e+25 301.112 102092 
5.48e-07 113.595 2.45557e+25 301.077 102074 
5.56e-07 113.605 2.45559e+25 301.344 102165 
5.64e-07 113.588 2.45845e+25 301.182 102229 
5.72e-07 113.58 2.45602e+25 301.197 102133 
5.8e-07 113.582 2.45656e+25 301.089 102118 
5.88e-07 113.648 2.45778e+25 301.231 102218 
5.96e-07 113.633 2.45759e+25 301.023 102139 
6.04e-07 113.623 2.45945e+25 301.186 102272 
6.12e-07 113.577 2.45799e+25 300.945 102129 
6.2e-07 113.6 2.45885e+25 300.977 102176 
6.28e-07 113.606 2.45631e+25 301.194 102144 
6.36e-07 113.579 2.45937e+25 301.042 102220 
6.44e-07 113.555 2.45618e+25 301.4 102208 
6.52e-07 113.551 2.45692e+25 301.113 102142 
6.6e-07 113.636 2.45698e+25 301.097 102139 
6.68e-07 113.614 2.45675e+25 301.395 102231 
6.76e-07 113.583 2.4596e+25 301.009 102218 
6.84e-07 113.601 2.4602e+25 300.928 102215 
6.92e-07 113.588 2.46171e+25 300.707 102203 
7e-07 113.633 2.46027e+25 300.691 102137 
7.08e-07 113.581 2.45665e+25 300.817 102030 
7.16e-07 113.612 2.45959e+25 300.826 102156 
7.24e-07 113.605 2.45974e+25 300.704 102120 
7.32e-07 113.576 2.46059e+25 300.612 102124 
7.4e-07 113.646 2.46214e+25 300.541 102164 
7.48e-07 113.558 2.4603e+25 300.559 102094 
7.56e-07 113.627 2.46358e+25 300.495 102209 
7.64e-07 113.635 2.46229e+25 300.562 102178 
7.72e-07 113.558 2.46082e+25 300.641 102144 
7.8e-07 113.581 2.46349e+25 300.271 102129 
7.88e-07 113.609 2.46333e+25 300.201 102098 
7.96e-07 113.662 2.46421e+25 300.409 102205 
8.04e-07 113.594 2.46301e+25 300.417 102158 
8.12e-07 113.604 2.4643e+25 300.272 102163 
8.2e-07 113.614 2.46457e+25 300.266 102172 
8.28e-07 113.66 2.46308e+25 300.569 102213 
8.36e-07 113.625 2.46386e+25 300.212 102124 
8.44e-07 113.603 2.46254e+25 300.387 102129 
8.52e-07 113.645 2.46553e+25 300.414 102262 
8.6e-07 113.594 2.46429e+25 300.505 102241 
8.68e-07 113.591 2.46389e+25 300.62 102264 
8.76e-07 113.59 2.4634e+25 300.588 102233 
8.84e-07 113.552 2.46224e+25 300.572 102179 
8.92e-07 113.578 2.46097e+25 300.67 102160 
9e-07 113.594 2.46313e+25 300.823 102301 
9.08e-07 113.601 2.46184e+25 300.726 102215 
9.16e-07 113.551 2.46171e+25 300.649 102183 
9.24e-07 113.609 2.46348e+25 300.463 102193 
9.32e-07 113.552 2.46247e+25 300.459 102150 
9.4e-07 113.592 2.46272e+25 300.454 102159 
9.48e-07 113.608 2.46572e+25 300.063 102150 
9.56e-07 113.575 2.46583e+25 300.035 102145 
9.64e-07 113.658 2.46626e+25 300.272 102244 
9.72e-07 113.624 2.46736e+25 299.983 102191 
9.8e-07 113.577 2.46807e+25 299.858 102178 
9.88e-07 113.556 2.47113e+25 299.81 102288 
9.96e-07 113.891 2.48185e+25 299.385 102586 
