ITEM: TIMESTEP
500000
ITEM: NUMBER OF CELLS
125
ITEM: BOX BOUNDS pp ss pp
0 1e-06
0 1e-06
0 1e-06
ITEM: CELLS yc f_rho[1] f_rho[2] f_state[1] f_state[2] 
4e-09 115.5 2.52946e+25 297.291 103823 
1.2e-08 115.646 2.49002e+25 299.322 102902 
2e-08 115.734 2.48997e+25 299.495 102960 
2.8e-08 115.683 2.48511e+25 299.674 102820 
3.6e-08 115.714 2.4817e+25 300.083 102819 
4.4e-08 115.757 2.48197e+25 299.81 102736 
5.2e-08 115.741 2.48267e+25 299.835 102774 
6e-08 115.699 2.47926e+25 300.294 102790 
6.8e-08 115.786 2.47407e+25 300.738 102727 
7.6e-08 115.71 2.47474e+25 300.71 102745 
8.4e-08 115.675 2.47386e+25 300.77 102729 
9.2e-08 115.771 2.47565e+25 300.832 102824 
1e-07 115.774 2.47333e+25 300.904 102753 
1.08e-07 115.755 2.47253e+25 300.984 102747 
1.16e-07 115.704 2.46849e+25 301.469 102744 
1.24e-07 115.775 2.46967e+25 301.348 102752 
1.32e-07 115.77 2.46804e+25 301.608 102773 
1.4e-07 115.722 2.46879e+25 301.403 102734 
1.48e-07 115.681 2.46574e+25 301.824 102751 
1.56e-07 115.737 2.46524e+25 301.89 102752 
1.64e-07 115.767 2.46286e+25 301.554 102539 
1.72e-07 115.77 2.46405e+25 301.932 102717 
1.8e-07 115.734 2.4609e+25 301.965 102597 
1.88e-07 115.761 2.46061e+25 301.995 102595 
1.96e-07 115.675 2.46142e+25 302.041 102644 
2.04e-07 115.682 2.4603e+25 301.953 102568 
2.12e-07 115.681 2.46135e+25 302.048 102644 
2.2e-07 115.699 2.45711e+25 302.394 102584 
2.28e-07 115.669 2.45899e+25 302.437 102677 
2.36e-07 115.772 2.45868e+25 302.473 102677 
2.44e-07 115.802 2.45991e+25 302.511 102741 
2.52e-07 115.665 2.45691e+25 302.692 102677 
2.6e-07 115.712 2.45731e+25 302.632 102673 
2.68e-07 115.68 2.45473e+25 302.679 102581 
2.76e-07 115.71 2.45575e+25 302.495 102562 
2.84e-07 115.701 2.45678e+25 302.718 102680 
2.92e-07 115.693 2.454e+25 302.93 102636 
3e-07 115.779 2.44986e+25 303.102 102521 
3.08e-07 115.733 2.45274e+25 302.896 102572 
3.16e-07 115.741 2.45459e+25 302.885 102646 
3.24e-07 115.725 2.45748e+25 302.801 102738 
3.32e-07 115.75 2.45543e+25 302.898 102685 
3.4e-07 115.706 2.45495e+25 303.139 102747 
3.48e-07 115.715 2.45516e+25 303.008 102711 
3.56e-07 115.645 2.45279e+25 303.189 102673 
3.64e-07 115.632 2.45308e+25 302.992 102619 
3.72e-07 115.689 2.45186e+25 303.277 102664 
3.8e-07 115.66 2.45189e+25 303.235 102651 
3.88e-07 115.709 2.45249e+25 303.254 102683 
3.96e-07 115.733 2.45278e+25 303.153 102661 
4.04e-07 115.651 2.45099e+25 303.461 102690 
4.12e-07 115.669 2.45386e+25 303.289 102752 
4.2e-07 115.688 2.45328e+25 303.271 102721 
4.28e-07 115.647 2.44996e+25 303.785 102756 
4.36e-07 115.672 2.45145e+25 303.497 102721 
4.44e-07 115.7 2.45098e+25 303.423 102677 
4.52e-07 115.658 2.44824e+25 303.754 102674 
4.6e-07 115.73 2.44962e+25 303.586 102675 
4.68e-07 115.642 2.45191e+25 303.456 102727 
4.76e-07 115.7 2.45442e+25 303.208 102748 
4.84e-07 115.712 2.45118e+25 303.571 102735 
4.92e-07 115.718 2.45156e+25 303.501 102727 
5e-07 115.741 2.44789e+25 303.736 102653 
5.08e-07 115.754 2.44933e+25 303.578 102660 
5.16e-07 115.651 2.44968e+25 303.505 102650 
5.24e-07 115.73 2.44868e+25 303.714 102678 
5.32e-07 115.762 2.45045e+25 303.477 102672 
5.4e-07 115.658 2.44865e+25 303.856 102725 
5.48e-07 115.791 2.44976e+25 303.822 102760 
5.56e-07 115.714 2.44599e+25 303.895 102627 
5.64e-07 115.659 2.44971e+25 303.808 102754 
5.72e-07 115.683 2.45031e+25 303.579 102701 
5.8e-07 115.627 2.45047e+25 303.409 102650 
5.88e-07 115.682 2.45002e+25 303.49 102659 
5.96e-07 115.681 2.45219e+25 303.521 102760 
6.04e-07 115.769 2.45374e+25 303.384 102779 
6.12e-07 115.706 2.44991e+25 303.585 102687 
6.2e-07 115.77 2.45296e+25 303.544 102801 
6.28e-07 115.629 2.45066e+25 303.485 102684 
6.36e-07 115.752 2.44999e+25 303.606 102697 
6.44e-07 115.746 2.4501e+25 303.613 102704 
6.52e-07 115.731 2.44857e+25 303.501 102602 
6.6e-07 115.676 2.45124e+25 303.321 102653 
6.68e-07 115.693 2.45225e+25 303.198 102653 
6.76e-07 115.72 2.45079e+25 303.552 102712 
6.84e-07 115.801 2.4527e+25 303.315 102712 
6.92e-07 115.702 2.4522e+25 303.121 102626 
7e-07 115.682 2.45504e+25 303.154 102755 
7.08e-07 115.698 2.45277e+25 303.389 102740 
7.16e-07 115.609 2.45366e+25 303.438 102794 
7.24e-07 115.709 2.45426e+25 303.104 102706 
7.32e-07 115.715 2.45403e+25 303.331 102773 
7.4e-07 115.639 2.45468e+25 303.151 102739 
7.48e-07 115.778 2.45649e+25 302.882 102724 
7.56e-07 115.717 2.4552e+25 302.861 102663 
7.64e-07 115.757 2.45967e+25 302.581 102754 
7.72e-07 115.722 2.45503e+25 302.92 102676 
7.8e-07 115.755 2.45961e+25 302.64 102772 
7.88e-07 115.629 2.45745e+25 302.439 102614 
7.96e-07 115.724 2.45879e+25 302.356 102642 
8.04e-07 115.768 2.46036e+25 302.28 102681 
8.12e-07 115.772 2.45975e+25 302.221 102636 
8.2e-07 115.709 2.4629e+25 302.144 102741 
8.28e-07 115.664 2.46022e+25 302.242 102663 
8.36e-07 115.698 2.46175e+25 302.249 102729 
8.44e-07 115.799 2.46298e+25 302.061 102716 
8.52e-07 115.746 2.46435e+25 301.929 102729 
8.6e-07 115.719 2.46285e+25 301.859 102642 
8.68e-07 115.701 2.4636e+25 301.653 102603 
8.76e-07 115.725 2.46602e+25 301.576 102678 
8.84e-07 115.749 2.46745e+25 301.438 102690 
8.92e-07 115.746 2.46643e+25 301.301 102601 
9e-07 115.694 2.46713e+25 301.345 102645 
9.08e-07 115.724 2.47193e+25 301.174 102787 
9.16e-07 115.702 2.47155e+25 301.001 102712 
9.24e-07 115.759 2.47474e+25 300.788 102772 
9.32e-07 115.774 2.47425e+25 300.479 102646 
9.4e-07 115.759 2.47588e+25 300.294 102650 
9.48e-07 115.683 2.47457e+25 300.242 102578 
9.56e-07 115.788 2.4787e+25 300.109 102704 
9.64e-07 115.679 2.47878e+25 300.279 102766 
9.72e-07 115.687 2.47877e+25 299.948 102651 
9.8e-07 115.677 2.48712e+25 299.534 102855 
9.88e-07 115.668 2.49127e+25 299.274 102937 
9.96e-07 115.549 2.53176e+25 297.156 103870 
