ITEM: TIMESTEP
500000
ITEM: NUMBER OF CELLS
125
ITEM: BOX BOUNDS pp ss pp
0 0.0001
0 1e-06
0 0.0001
ITEM: CELLS yc f_rho[1] f_rho[2] f_state[1] f_state[2] 
4e-09 110.674 2.50262e+25 297.989 102962 
1.2e-08 110.724 2.47141e+25 299.51 102197 
2e-08 110.995 2.46933e+25 299.575 102134 
2.8e-08 111.043 2.47088e+25 299.548 102188 
3.6e-08 111.017 2.46763e+25 299.838 102153 
4.4e-08 110.969 2.46719e+25 299.562 102041 
5.2e-08 110.982 2.46545e+25 299.739 102029 
6e-08 110.994 2.46524e+25 299.702 102008 
6.8e-08 111.011 2.46431e+25 299.935 102049 
7.6e-08 110.986 2.46463e+25 299.854 102034 
8.4e-08 111.016 2.46363e+25 300.044 102057 
9.2e-08 111.081 2.46367e+25 299.969 102034 
1e-07 110.994 2.46356e+25 299.781 101965 
1.08e-07 110.923 2.46292e+25 299.969 102002 
1.16e-07 110.99 2.4628e+25 299.858 101960 
1.24e-07 111.071 2.46464e+25 299.972 102074 
1.32e-07 111.057 2.46115e+25 300.038 101952 
1.4e-07 110.995 2.46143e+25 300.061 101972 
1.48e-07 111.038 2.46412e+25 299.861 102015 
1.56e-07 110.97 2.46047e+25 300.041 101925 
1.64e-07 111.078 2.46044e+25 300.239 101991 
1.72e-07 111.033 2.45849e+25 300.415 101970 
1.8e-07 111.03 2.45911e+25 300.258 101943 
1.88e-07 111.03 2.46215e+25 300.241 102063 
1.96e-07 111.043 2.46207e+25 300.28 102073 
2.04e-07 110.987 2.46089e+25 300.066 101951 
2.12e-07 110.987 2.45774e+25 300.513 101972 
2.2e-07 111.008 2.4599e+25 300.228 101965 
2.28e-07 111.011 2.46264e+25 300.121 102043 
2.36e-07 111.002 2.45979e+25 300.632 102098 
2.44e-07 111.063 2.45941e+25 300.386 101998 
2.52e-07 110.969 2.45676e+25 300.503 101928 
2.6e-07 111.04 2.456e+25 300.425 101870 
2.68e-07 111.033 2.4571e+25 300.262 101861 
2.76e-07 110.999 2.46069e+25 300.1 101954 
2.84e-07 110.986 2.46002e+25 300.346 102010 
2.92e-07 111.02 2.45888e+25 300.557 102035 
3e-07 111.028 2.45958e+25 300.176 101934 
3.08e-07 111.008 2.45798e+25 300.386 101939 
3.16e-07 111.081 2.46062e+25 300.344 102035 
3.24e-07 110.972 2.45747e+25 300.42 101929 
3.32e-07 111.045 2.45781e+25 300.273 101894 
3.4e-07 110.996 2.45594e+25 300.531 101904 
3.48e-07 110.989 2.45674e+25 300.504 101928 
3.56e-07 110.997 2.45651e+25 300.577 101943 
3.64e-07 111.088 2.45986e+25 300.628 102099 
3.72e-07 110.989 2.4567e+25 300.465 101913 
3.8e-07 111.129 2.46115e+25 300.17 101998 
3.88e-07 111.042 2.45911e+25 300.502 102025 
3.96e-07 110.98 2.45753e+25 300.53 101969 
4.04e-07 111.001 2.45631e+25 300.541 101923 
4.12e-07 111.058 2.45769e+25 300.507 101968 
4.2e-07 111.013 2.4582e+25 300.46 101974 
4.28e-07 111.068 2.45917e+25 300.608 102064 
4.36e-07 111.07 2.46066e+25 300.512 102093 
4.44e-07 111.053 2.45835e+25 300.554 102012 
4.52e-07 111.036 2.45816e+25 300.414 101956 
4.6e-07 111 2.4534e+25 300.824 101898 
4.68e-07 110.94 2.4524e+25 300.845 101863 
4.76e-07 111.02 2.45438e+25 300.644 101877 
4.84e-07 111.031 2.45776e+25 300.381 101928 
4.92e-07 111.004 2.45757e+25 300.337 101905 
5e-07 111.05 2.46309e+25 299.987 102015 
5.08e-07 111.01 2.45748e+25 300.449 101940 
5.16e-07 111.038 2.4602e+25 300.418 102042 
5.24e-07 111.038 2.46217e+25 300.323 102092 
5.32e-07 110.952 2.45701e+25 300.449 101920 
5.4e-07 111.013 2.45851e+25 300.237 101911 
5.48e-07 111.083 2.45861e+25 300.556 102023 
5.56e-07 111.006 2.45868e+25 300.361 101960 
5.64e-07 110.944 2.45741e+25 300.308 101889 
5.72e-07 110.951 2.45857e+25 300.348 101951 
5.8e-07 111.003 2.46034e+25 300.275 101999 
5.88e-07 111.014 2.46104e+25 300.203 102004 
5.96e-07 111.08 2.4599e+25 300.293 101987 
6.04e-07 111.091 2.46345e+25 300.101 102069 
6.12e-07 110.989 2.46163e+25 300.256 102046 
6.2e-07 110.984 2.45901e+25 300.4 101987 
6.28e-07 111.011 2.45809e+25 300.279 101908 
6.36e-07 111.118 2.46263e+25 300.238 102082 
6.44e-07 111.116 2.46145e+25 300.191 102017 
6.52e-07 111.085 2.4607e+25 300.343 102038 
6.6e-07 111.024 2.46296e+25 300.166 102071 
6.68e-07 110.994 2.46059e+25 300.142 101964 
6.76e-07 111.092 2.4608e+25 300.163 101980 
6.84e-07 110.955 2.45885e+25 300.204 101913 
6.92e-07 110.97 2.45918e+25 300.277 101952 
7e-07 110.959 2.45848e+25 300.322 101938 
7.08e-07 110.999 2.45977e+25 300.139 101930 
7.16e-07 110.977 2.45646e+25 300.395 101879 
7.24e-07 110.922 2.45912e+25 300.314 101962 
7.32e-07 110.983 2.45778e+25 300.353 101920 
7.4e-07 111.094 2.46171e+25 299.912 101933 
7.48e-07 111.077 2.45944e+25 299.985 101864 
7.56e-07 111.091 2.46131e+25 299.807 101881 
7.64e-07 110.998 2.45758e+25 299.986 101787 
7.72e-07 110.976 2.45808e+25 300.102 101847 
7.8e-07 111.013 2.46e+25 300.055 101911 
7.88e-07 111.009 2.46216e+25 300.006 101983 
7.96e-07 111.02 2.46159e+25 299.777 101882 
8.04e-07 111.027 2.45934e+25 300.091 101895 
8.12e-07 111.028 2.46103e+25 299.966 101923 
8.2e-07 111.031 2.45955e+25 300.026 101882 
8.28e-07 111.015 2.46079e+25 299.913 101895 
8.36e-07 111.021 2.46184e+25 300.008 101971 
8.44e-07 110.97 2.46082e+25 300.073 101951 
8.52e-07 110.998 2.46012e+25 300.007 101899 
8.6e-07 110.921 2.45881e+25 300.296 101943 
8.68e-07 111.073 2.46392e+25 299.948 102036 
8.76e-07 110.991 2.46106e+25 299.822 101875 
8.84e-07 111.004 2.46166e+25 299.868 101916 
8.92e-07 111.031 2.46167e+25 299.623 101833 
9e-07 111.025 2.46158e+25 299.757 101875 
9.08e-07 111.039 2.46369e+25 299.756 101962 
9.16e-07 111.052 2.46498e+25 299.762 102017 
9.24e-07 111.011 2.46332e+25 299.885 101990 
9.32e-07 110.992 2.46523e+25 299.821 102047 
9.4e-07 111.008 2.464e+25 299.866 102012 
9.48e-07 111.004 2.46433e+25 299.619 101941 
9.56e-07 110.979 2.46618e+25 299.587 102007 
9.64e-07 110.975 2.46435e+25 299.861 102025 
9.72e-07 110.996 2.46708e+25 299.654 102067 
9.8e-07 110.966 2.47158e+25 299.201 102099 
9.88e-07 110.718 2.46945e+25 299.366 102067 
9.96e-07 110.625 2.50211e+25 297.73 102852 
