ITEM: TIMESTEP
500000
ITEM: NUMBER OF CELLS
125
ITEM: BOX BOUNDS pp ss pp
0 0.0001
0 1e-06
0 0.0001
ITEM: CELLS yc f_rho[1] f_rho[2] f_state[1] f_state[2] 
4e-09 115.351 2.4944e+25 300.175 103377 
1.2e-08 115.595 2.48931e+25 299.951 103089 
2e-08 115.63 2.48587e+25 300.154 103016 
2.8e-08 115.645 2.48371e+25 300.273 102967 
3.6e-08 115.652 2.48012e+25 300.586 102926 
4.4e-08 115.667 2.47697e+25 300.579 102793 
5.2e-08 115.685 2.47875e+25 300.612 102878 
6e-08 115.693 2.47507e+25 300.729 102765 
6.8e-08 115.631 2.47682e+25 300.686 102823 
7.6e-08 115.697 2.47627e+25 300.846 102855 
8.4e-08 115.646 2.47079e+25 301.005 102682 
9.2e-08 115.656 2.46986e+25 301.175 102701 
1e-07 115.64 2.47104e+25 301.196 102757 
1.08e-07 115.763 2.47204e+25 301.212 102804 
1.16e-07 115.654 2.46735e+25 301.559 102728 
1.24e-07 115.689 2.46805e+25 301.433 102714 
1.32e-07 115.615 2.46813e+25 301.724 102816 
1.4e-07 115.694 2.4697e+25 301.628 102849 
1.48e-07 115.572 2.46475e+25 301.727 102677 
1.56e-07 115.626 2.46672e+25 301.527 102690 
1.64e-07 115.644 2.46515e+25 301.854 102736 
1.72e-07 115.665 2.46302e+25 302.081 102725 
1.8e-07 115.592 2.46081e+25 302.247 102689 
1.88e-07 115.676 2.46239e+25 302.193 102736 
1.96e-07 115.644 2.46118e+25 302.212 102692 
2.04e-07 115.594 2.45768e+25 302.709 102715 
2.12e-07 115.604 2.45993e+25 302.498 102738 
2.2e-07 115.597 2.45762e+25 302.895 102776 
2.28e-07 115.661 2.46295e+25 302.573 102889 
2.36e-07 115.534 2.45861e+25 302.628 102727 
2.44e-07 115.615 2.45857e+25 302.813 102788 
2.52e-07 115.663 2.45811e+25 302.898 102797 
2.6e-07 115.652 2.45667e+25 302.899 102737 
2.68e-07 115.659 2.45689e+25 302.767 102702 
2.76e-07 115.619 2.45791e+25 302.945 102805 
2.84e-07 115.726 2.45789e+25 302.993 102820 
2.92e-07 115.603 2.4575e+25 302.713 102709 
3e-07 115.615 2.45657e+25 302.948 102750 
3.08e-07 115.677 2.455e+25 302.968 102691 
3.16e-07 115.672 2.45613e+25 302.948 102731 
3.24e-07 115.583 2.4528e+25 303.273 102702 
3.32e-07 115.579 2.45657e+25 303.057 102786 
3.4e-07 115.702 2.45738e+25 302.914 102772 
3.48e-07 115.642 2.45174e+25 303.316 102672 
3.56e-07 115.607 2.45573e+25 303.119 102773 
3.64e-07 115.575 2.45315e+25 303.293 102724 
3.72e-07 115.636 2.45573e+25 303.331 102844 
3.8e-07 115.676 2.45417e+25 303.382 102796 
3.88e-07 115.571 2.45182e+25 303.712 102809 
3.96e-07 115.58 2.45229e+25 303.474 102749 
4.04e-07 115.578 2.45195e+25 303.661 102798 
4.12e-07 115.633 2.44835e+25 303.654 102644 
4.2e-07 115.638 2.45068e+25 303.489 102686 
4.28e-07 115.627 2.4529e+25 303.22 102688 
4.36e-07 115.638 2.45318e+25 303.229 102703 
4.44e-07 115.629 2.45342e+25 303.351 102754 
4.52e-07 115.618 2.45195e+25 303.458 102729 
4.6e-07 115.616 2.45092e+25 303.471 102690 
4.68e-07 115.511 2.45087e+25 303.378 102657 
4.76e-07 115.64 2.45319e+25 303.536 102807 
4.84e-07 115.592 2.45317e+25 303.553 102812 
4.92e-07 115.563 2.45464e+25 303.403 102823 
5e-07 115.626 2.45337e+25 303.485 102798 
5.08e-07 115.643 2.4531e+25 303.551 102809 
5.16e-07 115.714 2.45405e+25 303.506 102833 
5.24e-07 115.632 2.45231e+25 303.279 102684 
5.32e-07 115.597 2.45215e+25 303.508 102755 
5.4e-07 115.592 2.45228e+25 303.47 102747 
5.48e-07 115.588 2.45178e+25 303.69 102800 
5.56e-07 115.607 2.45081e+25 303.655 102748 
5.64e-07 115.586 2.45009e+25 303.716 102738 
5.72e-07 115.556 2.44944e+25 303.552 102656 
5.8e-07 115.596 2.44943e+25 303.628 102681 
5.88e-07 115.648 2.4498e+25 303.639 102700 
5.96e-07 115.607 2.45066e+25 303.837 102803 
6.04e-07 115.6 2.45198e+25 303.414 102715 
6.12e-07 115.626 2.45278e+25 303.41 102748 
6.2e-07 115.589 2.45322e+25 303.395 102761 
6.28e-07 115.585 2.45297e+25 303.655 102839 
6.36e-07 115.549 2.45301e+25 303.39 102750 
6.44e-07 115.622 2.45322e+25 303.423 102771 
6.52e-07 115.619 2.45159e+25 303.694 102794 
6.6e-07 115.642 2.45103e+25 303.823 102814 
6.68e-07 115.571 2.45088e+25 303.619 102739 
6.76e-07 115.66 2.45363e+25 303.222 102720 
6.84e-07 115.66 2.45484e+25 303.339 102810 
6.92e-07 115.615 2.45181e+25 303.33 102680 
7e-07 115.621 2.45021e+25 303.453 102654 
7.08e-07 115.589 2.45406e+25 303.258 102749 
7.16e-07 115.56 2.45596e+25 303.209 102813 
7.24e-07 115.517 2.45637e+25 303.104 102794 
7.32e-07 115.479 2.4534e+25 303.095 102667 
7.4e-07 115.527 2.45753e+25 302.981 102801 
7.48e-07 115.634 2.46054e+25 302.652 102815 
7.56e-07 115.629 2.46107e+25 302.568 102809 
7.64e-07 115.611 2.45417e+25 303.101 102701 
7.72e-07 115.613 2.45775e+25 302.729 102725 
7.8e-07 115.594 2.4577e+25 302.58 102672 
7.88e-07 115.67 2.45988e+25 302.421 102709 
7.96e-07 115.623 2.46061e+25 302.671 102824 
8.04e-07 115.6 2.45963e+25 302.641 102773 
8.12e-07 115.57 2.46169e+25 302.329 102753 
8.2e-07 115.628 2.46584e+25 302.275 102908 
8.28e-07 115.719 2.46611e+25 301.991 102823 
8.36e-07 115.662 2.46777e+25 302.012 102899 
8.44e-07 115.665 2.46603e+25 301.91 102792 
8.52e-07 115.58 2.46785e+25 301.972 102889 
8.6e-07 115.657 2.46913e+25 301.863 102905 
8.68e-07 115.661 2.4655e+25 302.061 102821 
8.76e-07 115.58 2.46492e+25 301.92 102749 
8.84e-07 115.579 2.46637e+25 301.716 102740 
8.92e-07 115.664 2.46925e+25 301.559 102806 
9e-07 115.663 2.46828e+25 301.409 102715 
9.08e-07 115.6 2.47142e+25 301.126 102749 
9.16e-07 115.769 2.47116e+25 301.101 102730 
9.24e-07 115.608 2.4698e+25 301.254 102725 
9.32e-07 115.683 2.47547e+25 300.885 102835 
9.4e-07 115.56 2.47434e+25 301.006 102829 
9.48e-07 115.582 2.47455e+25 300.926 102811 
9.56e-07 115.595 2.47518e+25 300.963 102850 
9.64e-07 115.536 2.47754e+25 300.724 102866 
9.72e-07 115.625 2.48024e+25 300.487 102897 
9.8e-07 115.588 2.48114e+25 300.262 102857 
9.88e-07 115.592 2.48866e+25 300.376 103208 
9.96e-07 115.427 2.49426e+25 300.49 103480 
