ITEM: TIMESTEP
500000
ITEM: NUMBER OF CELLS
125
ITEM: BOX BOUNDS pp ss pp
0 1e-06
0 1e-06
0 1e-06
ITEM: CELLS yc f_rho[1] f_rho[2] f_state[1] f_state[2] 
4e-09 116.016 2.5246e+25 298.99 104216 
1.2e-08 116.206 2.49189e+25 300.104 103249 
2e-08 116.283 2.48927e+25 300.104 103140 
2.8e-08 116.293 2.48669e+25 300.245 103082 
3.6e-08 116.33 2.48278e+25 300.32 102945 
4.4e-08 116.321 2.47991e+25 300.243 102800 
5.2e-08 116.4 2.47693e+25 300.658 102818 
6e-08 116.405 2.47722e+25 300.846 102894 
6.8e-08 116.342 2.47639e+25 300.971 102903 
7.6e-08 116.378 2.47187e+25 301.293 102825 
8.4e-08 116.41 2.47536e+25 301.276 102964 
9.2e-08 116.405 2.4709e+25 301.233 102764 
1e-07 116.452 2.47184e+25 301.503 102895 
1.08e-07 116.328 2.468e+25 301.725 102811 
1.16e-07 116.434 2.46674e+25 301.851 102802 
1.24e-07 116.317 2.46595e+25 302.021 102826 
1.32e-07 116.373 2.46836e+25 301.739 102831 
1.4e-07 116.362 2.46596e+25 302.07 102844 
1.48e-07 116.392 2.46601e+25 301.991 102818 
1.56e-07 116.39 2.465e+25 302.172 102839 
1.64e-07 116.258 2.46388e+25 302.436 102881 
1.72e-07 116.394 2.46518e+25 302.484 102952 
1.8e-07 116.351 2.46361e+25 302.377 102850 
1.88e-07 116.389 2.46205e+25 302.77 102919 
1.96e-07 116.352 2.46291e+25 302.579 102890 
2.04e-07 116.407 2.46111e+25 302.829 102899 
2.12e-07 116.35 2.46243e+25 302.647 102892 
2.2e-07 116.359 2.46407e+25 302.707 102981 
2.28e-07 116.279 2.45878e+25 302.876 102818 
2.36e-07 116.386 2.46019e+25 302.992 102916 
2.44e-07 116.401 2.4576e+25 302.986 102806 
2.52e-07 116.341 2.45524e+25 303.088 102742 
2.6e-07 116.335 2.45803e+25 303.097 102861 
2.68e-07 116.287 2.45722e+25 303.108 102831 
2.76e-07 116.348 2.45262e+25 303.548 102788 
2.84e-07 116.401 2.45406e+25 303.599 102865 
2.92e-07 116.386 2.45471e+25 303.476 102851 
3e-07 116.363 2.45245e+25 303.757 102852 
3.08e-07 116.337 2.45507e+25 303.613 102912 
3.16e-07 116.343 2.45395e+25 303.478 102820 
3.24e-07 116.326 2.45116e+25 303.748 102794 
3.32e-07 116.346 2.45122e+25 303.844 102829 
3.4e-07 116.233 2.45339e+25 303.722 102879 
3.48e-07 116.304 2.45158e+25 303.891 102860 
3.56e-07 116.365 2.45286e+25 303.691 102846 
3.64e-07 116.365 2.45113e+25 303.768 102799 
3.72e-07 116.335 2.45095e+25 304.098 102904 
3.8e-07 116.345 2.45218e+25 304.145 102971 
3.88e-07 116.362 2.4531e+25 303.89 102924 
3.96e-07 116.312 2.45215e+25 303.91 102891 
4.04e-07 116.417 2.45175e+25 304.074 102930 
4.12e-07 116.337 2.45224e+25 304.036 102937 
4.2e-07 116.304 2.45122e+25 304.146 102931 
4.28e-07 116.306 2.44824e+25 304.151 102808 
4.36e-07 116.401 2.44684e+25 304.218 102772 
4.44e-07 116.302 2.4445e+25 304.453 102753 
4.52e-07 116.317 2.44324e+25 304.284 102643 
4.6e-07 116.365 2.44704e+25 304.159 102760 
4.68e-07 116.384 2.45007e+25 304.042 102848 
4.76e-07 116.386 2.44914e+25 304.283 102890 
4.84e-07 116.365 2.45141e+25 304.185 102952 
4.92e-07 116.41 2.45098e+25 304.198 102939 
5e-07 116.336 2.45152e+25 304.254 102980 
5.08e-07 116.346 2.44961e+25 304.234 102894 
5.16e-07 116.388 2.45194e+25 304.12 102953 
5.24e-07 116.329 2.45343e+25 303.713 102877 
5.32e-07 116.329 2.45144e+25 303.93 102868 
5.4e-07 116.29 2.45155e+25 303.897 102861 
5.48e-07 116.342 2.44795e+25 304.069 102768 
5.56e-07 116.304 2.44959e+25 304.24 102895 
5.64e-07 116.268 2.44745e+25 304.187 102787 
5.72e-07 116.236 2.44626e+25 304.22 102748 
5.8e-07 116.315 2.45151e+25 304.173 102953 
5.88e-07 116.359 2.45027e+25 304.318 102950 
5.96e-07 116.266 2.44889e+25 304.366 102908 
6.04e-07 116.368 2.44866e+25 304.301 102876 
6.12e-07 116.311 2.44955e+25 304.116 102851 
6.2e-07 116.355 2.44967e+25 303.879 102776 
6.28e-07 116.361 2.45254e+25 303.668 102825 
6.36e-07 116.368 2.45498e+25 303.54 102884 
6.44e-07 116.35 2.45456e+25 303.661 102907 
6.52e-07 116.274 2.44979e+25 303.799 102754 
6.6e-07 116.302 2.44995e+25 303.993 102826 
6.68e-07 116.352 2.45379e+25 303.571 102845 
6.76e-07 116.344 2.45188e+25 303.803 102843 
6.84e-07 116.312 2.45179e+25 303.801 102839 
6.92e-07 116.353 2.45089e+25 303.759 102786 
7e-07 116.332 2.45279e+25 303.581 102806 
7.08e-07 116.374 2.45453e+25 303.495 102850 
7.16e-07 116.396 2.45441e+25 303.352 102796 
7.24e-07 116.337 2.45337e+25 303.362 102756 
7.32e-07 116.34 2.45244e+25 303.388 102726 
7.4e-07 116.305 2.45301e+25 303.499 102787 
7.48e-07 116.446 2.45478e+25 303.327 102803 
7.56e-07 116.4 2.45608e+25 303.164 102802 
7.64e-07 116.41 2.45482e+25 303.28 102789 
7.72e-07 116.372 2.45811e+25 302.978 102824 
7.8e-07 116.366 2.45681e+25 303.035 102789 
7.88e-07 116.281 2.45527e+25 303.206 102783 
7.96e-07 116.345 2.45651e+25 303.136 102811 
8.04e-07 116.302 2.46086e+25 302.863 102900 
8.12e-07 116.398 2.4625e+25 302.777 102940 
8.2e-07 116.322 2.46339e+25 302.464 102870 
8.28e-07 116.401 2.46646e+25 302.375 102968 
8.36e-07 116.466 2.46267e+25 302.24 102764 
8.44e-07 116.431 2.4635e+25 302.285 102814 
8.52e-07 116.349 2.46525e+25 302.338 102905 
8.6e-07 116.435 2.46696e+25 302.067 102884 
8.68e-07 116.298 2.46727e+25 301.858 102826 
8.76e-07 116.413 2.46864e+25 301.88 102891 
8.84e-07 116.403 2.46956e+25 301.593 102831 
8.92e-07 116.342 2.46973e+25 301.451 102789 
9e-07 116.313 2.4749e+25 301.057 102870 
9.08e-07 116.378 2.47128e+25 301.401 102837 
9.16e-07 116.368 2.47442e+25 301.217 102905 
9.24e-07 116.341 2.47503e+25 301.025 102864 
9.32e-07 116.387 2.47855e+25 300.922 102976 
9.4e-07 116.38 2.47829e+25 300.883 102952 
9.48e-07 116.426 2.48123e+25 300.581 102970 
9.56e-07 116.322 2.48025e+25 300.704 102972 
9.64e-07 116.407 2.48228e+25 300.42 102959 
9.72e-07 116.385 2.48471e+25 300.462 103074 
9.8e-07 116.35 2.49178e+25 299.99 103205 
9.88e-07 116.246 2.49557e+25 300.027 103375 
9.96e-07 115.966 2.52388e+25 299.168 104247 
