ITEM: TIMESTEP
500000
ITEM: NUMBER OF CELLS
500
ITEM: BOX BOUNDS pp ss pp
0 0.0001
0 0.0004
0 0.0001
ITEM: CELLS yc f_rho[1] f_rho[2] f_state[1] f_state[2] 
4e-07 102.926 1.41868e+24 210.223 4117.63 
1.2e-06 102.893 7.94762e+23 217.31 2384.52 
2e-06 120.205 4.73069e+25 138.243 90292.2 
2.8e-06 106.136 1.0811e+24 173.429 2588.63 
3.6e-06 105.987 1.14902e+24 167.523 2657.59 
4.4e-06 106.018 1.18591e+24 167.956 2749.98 
5.2e-06 105.976 1.21198e+24 167.876 2809.1 
6e-06 105.969 1.18759e+24 174.226 2856.67 
6.8e-06 105.999 1.15256e+24 181.908 2894.66 
7.6e-06 106.063 1.15419e+24 186.048 2964.73 
8.4e-06 106.031 1.12088e+24 194.31 3007.02 
9.2e-06 106.063 1.12702e+24 197.981 3080.62 
1e-05 106.124 1.0871e+24 206.16 3094.28 
1.08e-05 105.934 1.05205e+24 213.77 3105.03 
1.16e-05 105.993 1.04824e+24 219.205 3172.43 
1.24e-05 106.017 1.0116e+24 225.772 3153.27 
1.32e-05 106.107 1.01183e+24 229.191 3201.76 
1.4e-05 106.038 9.83705e+23 235.154 3193.75 
1.48e-05 106.054 9.81814e+23 238.809 3237.16 
1.56e-05 106.037 9.58355e+23 242.591 3209.85 
1.64e-05 106.163 9.53843e+23 245.316 3230.62 
1.72e-05 106.195 9.58444e+23 244.803 3239.42 
1.8e-05 106.091 9.44336e+23 249.011 3246.6 
1.88e-05 106.08 9.51112e+23 251.185 3298.44 
1.96e-05 106.127 9.49963e+23 252.33 3309.48 
2.04e-05 105.997 9.25022e+23 258.349 3299.46 
2.12e-05 106.175 9.4229e+23 256.047 3331.1 
2.2e-05 106.081 9.12084e+23 260.428 3279.49 
2.28e-05 106.21 9.18495e+23 260.657 3305.44 
2.36e-05 106.2 9.06553e+23 262.49 3285.4 
2.44e-05 106.24 9.17167e+23 259.908 3291.18 
2.52e-05 106.194 9.13453e+23 259.728 3275.58 
2.6e-05 106.256 9.05225e+23 262.25 3277.6 
2.68e-05 106.105 9.08007e+23 262.948 3296.42 
2.76e-05 106.22 9.09677e+23 263.51 3309.54 
2.84e-05 106.246 8.97142e+23 264.305 3273.78 
2.92e-05 106.17 9.06027e+23 263.46 3295.63 
3e-05 106.228 9.08084e+23 262.675 3293.28 
3.08e-05 106.207 9.20346e+23 261.939 3328.4 
3.16e-05 106.096 9.00372e+23 262.792 3266.76 
3.24e-05 106.255 9.00824e+23 264.873 3294.29 
3.32e-05 106.279 9.06217e+23 263.604 3298.12 
3.4e-05 106.199 8.99172e+23 265.454 3295.45 
3.48e-05 106.347 8.95265e+23 266.45 3293.44 
3.56e-05 106.171 8.97316e+23 267.514 3314.17 
3.64e-05 106.246 9.12698e+23 263.194 3316.55 
3.72e-05 106.241 8.99875e+23 267.011 3317.38 
3.8e-05 106.286 8.9243e+23 264.362 3257.28 
3.88e-05 106.267 9.04701e+23 263.556 3292.01 
3.96e-05 106.351 9.08212e+23 263.9 3309.1 
4.04e-05 106.221 9.18027e+23 260.341 3299.76 
4.12e-05 106.203 9.02912e+23 261.593 3261.03 
4.2e-05 106.265 9.31113e+23 258.587 3324.23 
4.28e-05 106.295 9.18142e+23 259.571 3290.4 
4.36e-05 106.174 9.09624e+23 261.562 3284.88 
4.44e-05 106.229 9.17877e+23 260.311 3298.83 
4.52e-05 106.204 9.04372e+23 260.823 3256.68 
4.6e-05 106.286 9.08575e+23 257.971 3236.04 
4.68e-05 106.168 9.14316e+23 259.104 3270.8 
4.76e-05 106.3 9.02919e+23 261.414 3258.82 
4.84e-05 106.131 9.02063e+23 261.113 3251.99 
4.92e-05 106.255 9.27142e+23 256.04 3277.46 
5e-05 106.057 9.18304e+23 257.451 3264.11 
5.08e-05 106.225 9.15219e+23 261.482 3304.08 
5.16e-05 106.215 9.26344e+23 257.389 3291.89 
5.24e-05 106.184 9.28559e+23 255.226 3272.04 
5.32e-05 106.346 9.17451e+23 256.902 3254.12 
5.4e-05 106.26 9.37774e+23 256.744 3324.16 
5.48e-05 106.201 9.29285e+23 257.054 3298.04 
5.56e-05 106.158 9.37868e+23 253.788 3286.22 
5.64e-05 106.283 9.29124e+23 255.536 3278 
5.72e-05 106.192 9.49584e+23 250.71 3286.92 
5.8e-05 106.284 9.29347e+23 252.579 3240.84 
5.88e-05 106.173 9.49816e+23 250.581 3286.03 
5.96e-05 106.314 9.30093e+23 251.754 3232.85 
6.04e-05 106.39 9.45045e+23 249.74 3258.54 
6.12e-05 106.162 9.39795e+23 250.307 3247.8 
6.2e-05 106.275 9.52511e+23 250.501 3294.3 
6.28e-05 106.27 9.62833e+23 248.466 3302.95 
6.36e-05 106.409 9.6703e+23 246.854 3295.82 
6.44e-05 106.177 9.43624e+23 248.088 3232.12 
6.52e-05 106.278 9.76423e+23 245.29 3306.75 
6.6e-05 106.237 9.53847e+23 246.922 3251.79 
6.68e-05 106.2 9.74653e+23 244.25 3286.76 
6.76e-05 106.242 9.52788e+23 245.153 3224.9 
6.84e-05 106.327 9.73823e+23 243.91 3279.38 
6.92e-05 106.258 9.56387e+23 244.755 3231.83 
7e-05 106.133 9.71553e+23 242.908 3258.31 
7.08e-05 106.257 9.65613e+23 244.423 3258.58 
7.16e-05 106.211 9.7704e+23 243.483 3284.46 
7.24e-05 106.184 9.74657e+23 244.721 3293.11 
7.32e-05 106.16 9.67109e+23 243.732 3254.4 
7.4e-05 106.319 9.88782e+23 241.233 3293.21 
7.48e-05 106.254 1.0097e+24 237.061 3304.74 
7.56e-05 106.233 9.77501e+23 242.393 3271.3 
7.64e-05 106.246 9.85148e+23 241.395 3283.31 
7.72e-05 106.233 9.81432e+23 241.302 3269.68 
7.8e-05 106.237 9.95374e+23 238.208 3273.6 
7.88e-05 106.167 1.00362e+24 237.143 3285.97 
7.96e-05 106.287 9.73648e+23 240.758 3236.43 
8.04e-05 106.184 9.91914e+23 239.876 3285.06 
8.12e-05 106.233 1.01214e+24 235.631 3292.73 
8.2e-05 106.195 1.00776e+24 235.098 3271.05 
8.28e-05 106.239 1.02256e+24 233.839 3301.34 
8.36e-05 106.195 1.00204e+24 236.568 3272.86 
8.44e-05 106.233 1.03256e+24 232.455 3313.9 
8.52e-05 106.181 1.01356e+24 235.095 3289.83 
8.6e-05 106.331 1.01698e+24 234.022 3285.89 
8.68e-05 106.224 1.01921e+24 233.498 3285.71 
8.76e-05 106.237 1.02532e+24 231.033 3270.51 
8.84e-05 106.116 1.03659e+24 230.541 3299.43 
8.92e-05 106.237 1.04169e+24 231.013 3322.44 
9e-05 106.202 1.03031e+24 229.995 3271.66 
9.08e-05 106.214 1.03459e+24 229.402 3276.78 
9.16e-05 106.302 1.03067e+24 230.464 3279.48 
9.24e-05 106.117 1.02717e+24 229.075 3248.65 
9.32e-05 106.186 1.03361e+24 229.449 3274.37 
9.4e-05 106.146 1.05625e+24 225.414 3287.24 
9.48e-05 106.201 1.05166e+24 224.071 3253.45 
9.56e-05 106.217 1.05412e+24 224.39 3265.7 
9.64e-05 106.147 1.05183e+24 225.15 3269.64 
9.72e-05 106.141 1.04264e+24 227.295 3271.96 
9.8e-05 106.201 1.05413e+24 224.33 3264.85 
9.88e-05 106.15 1.05824e+24 224.968 3286.92 
9.96e-05 106.106 1.06813e+24 222.755 3284.98 
0.0001004 106.092 1.05917e+24 225.201 3293.22 
0.0001012 106.135 1.06206e+24 223.604 3278.78 
0.000102 106.121 1.0674e+24 222.768 3282.95 
0.0001028 106.251 1.05813e+24 223.35 3262.93 
0.0001036 106.204 1.05757e+24 223.067 3257.08 
0.0001044 106.096 1.07116e+24 221.689 3278.55 
0.0001052 106.124 1.05681e+24 223.449 3260.31 
0.000106 106.166 1.08327e+24 221.995 3320.18 
0.0001068 106.044 1.07548e+24 222.202 3299.38 
0.0001076 106.189 1.07257e+24 221.317 3277.35 
0.0001084 106.216 1.07342e+24 221.293 3279.59 
0.0001092 106.109 1.08305e+24 218.334 3264.76 
0.00011 106.319 1.08065e+24 218.762 3263.91 
0.0001108 106.236 1.06415e+24 220.874 3245.11 
0.0001116 106.014 1.09122e+24 219.234 3302.97 
0.0001124 106.148 1.06686e+24 221.645 3264.75 
0.0001132 106.19 1.09548e+24 219.293 3316.74 
0.000114 106.082 1.07624e+24 221.702 3294.29 
0.0001148 106.237 1.09327e+24 217.713 3286.2 
0.0001156 106.169 1.09151e+24 218.1 3286.73 
0.0001164 106.09 1.10203e+24 217.424 3308.13 
0.0001172 106.212 1.09335e+24 217.159 3278.08 
0.000118 106.162 1.10279e+24 216.499 3296.32 
0.0001188 106.13 1.10019e+24 217.752 3307.59 
0.0001196 106.083 1.10562e+24 215.633 3291.56 
0.0001204 106.065 1.09834e+24 216.377 3281.18 
0.0001212 106.07 1.10511e+24 215.208 3283.57 
0.000122 106.07 1.11815e+24 212.223 3276.23 
0.0001228 106.078 1.11978e+24 213.165 3295.58 
0.0001236 106.033 1.12596e+24 211.745 3291.68 
0.0001244 106.133 1.12715e+24 213.416 3321.16 
0.0001252 106.122 1.11179e+24 215.084 3301.52 
0.000126 106.131 1.12065e+24 213.604 3304.93 
0.0001268 106.173 1.14397e+24 210.609 3326.4 
0.0001276 106.056 1.10927e+24 214.085 3278.73 
0.0001284 106.102 1.1365e+24 212.621 3336.24 
0.0001292 106.049 1.14557e+24 209.587 3314.9 
0.00013 106.177 1.13956e+24 209.516 3296.38 
0.0001308 106.229 1.12102e+24 211.228 3269.25 
0.0001316 106.089 1.12518e+24 211.134 3279.92 
0.0001324 106.116 1.14824e+24 210.018 3329.47 
0.0001332 106.114 1.15511e+24 207.131 3303.34 
0.000134 106.127 1.14955e+24 208.742 3312.99 
0.0001348 106.085 1.16827e+24 207.778 3351.39 
0.0001356 106.077 1.14935e+24 208.275 3305.02 
0.0001364 106.126 1.15055e+24 207.709 3299.48 
0.0001372 106.121 1.15056e+24 206.815 3285.31 
0.000138 106.04 1.15631e+24 205.399 3279.11 
0.0001388 106.087 1.16579e+24 204.843 3297.05 
0.0001396 106.147 1.17221e+24 205.256 3321.88 
0.0001404 106.065 1.1907e+24 203.178 3340.12 
0.0001412 106.039 1.15755e+24 204.807 3273.16 
0.000142 106.082 1.17971e+24 203.452 3313.75 
0.0001428 106.058 1.20615e+24 202.238 3367.81 
0.0001436 106.112 1.17354e+24 204.273 3309.74 
0.0001444 106.116 1.18758e+24 202.113 3313.92 
0.0001452 106.115 1.18791e+24 202.394 3319.46 
0.000146 106.025 1.18737e+24 201.144 3297.43 
0.0001468 106.104 1.16528e+24 203.767 3278.3 
0.0001476 106.014 1.15629e+24 204.339 3262.14 
0.0001484 106 1.17763e+24 201.772 3280.59 
0.0001492 106.046 1.18804e+24 201.057 3297.88 
0.00015 106.14 1.18482e+24 200.97 3287.51 
0.0001508 106.052 1.18716e+24 200.851 3292.04 
0.0001516 106.063 1.18221e+24 201.916 3295.72 
0.0001524 106.104 1.19126e+24 201.281 3310.5 
0.0001532 106.034 1.1844e+24 202.811 3316.44 
0.000154 106.044 1.19908e+24 199.725 3306.47 
0.0001548 106.065 1.18059e+24 201.286 3280.92 
0.0001556 106.05 1.17571e+24 200.086 3247.9 
0.0001564 106.062 1.19673e+24 199.967 3303.99 
0.0001572 105.939 1.18664e+24 200.644 3287.22 
0.000158 106.065 1.16249e+24 202.665 3252.75 
0.0001588 106.105 1.1908e+24 200.591 3297.87 
0.0001596 105.996 1.19585e+24 200.151 3304.6 
0.0001604 106.033 1.17254e+24 201.306 3258.87 
0.0001612 106.061 1.16396e+24 201.085 3231.47 
0.000162 106 1.18295e+24 199.8 3263.22 
0.0001628 105.988 1.20908e+24 197.522 3297.28 
0.0001636 105.947 1.20449e+24 196.842 3273.43 
0.0001644 106.1 1.20474e+24 197.608 3286.86 
0.0001652 106.131 1.22012e+24 197.439 3325.97 
0.000166 106.043 1.2074e+24 196.385 3273.71 
0.0001668 106.035 1.18243e+24 198.709 3243.98 
0.0001676 106.027 1.21182e+24 198.391 3319.29 
0.0001684 105.95 1.19612e+24 199.423 3293.33 
0.0001692 106.059 1.19643e+24 198.874 3285.11 
0.00017 106.065 1.19666e+24 196.737 3250.41 
0.0001708 106.04 1.22928e+24 195.538 3318.69 
0.0001716 105.919 1.20283e+24 196.181 3257.95 
0.0001724 106.014 1.2012e+24 196.206 3253.95 
0.0001732 106.079 1.20263e+24 196.322 3259.73 
0.000174 106.063 1.19173e+24 196.952 3240.57 
0.0001748 105.996 1.19579e+24 195.561 3228.64 
0.0001756 106.09 1.18959e+24 199.245 3272.42 
0.0001764 106.045 1.19453e+24 196.349 3238.25 
0.0001772 106.013 1.21452e+24 195.798 3283.2 
0.000178 106.094 1.1894e+24 197.675 3246.09 
0.0001788 106.174 1.19945e+24 195.991 3245.66 
0.0001796 105.994 1.20325e+24 195.472 3247.32 
0.0001804 106.012 1.1936e+24 195.976 3229.56 
0.0001812 106.054 1.21479e+24 193.273 3241.58 
0.000182 106.059 1.21132e+24 194.146 3246.9 
0.0001828 106.008 1.20484e+24 195.911 3258.92 
0.0001836 106.028 1.20482e+24 195.095 3245.28 
0.0001844 106.166 1.21032e+24 194.201 3245.16 
0.0001852 106.053 1.24591e+24 191.556 3295.07 
0.000186 105.83 1.20744e+24 195.13 3252.92 
0.0001868 106.075 1.21153e+24 194.822 3258.79 
0.0001876 106.006 1.22186e+24 193.643 3266.66 
0.0001884 106.192 1.18971e+24 196.078 3220.72 
0.0001892 106.117 1.21377e+24 195.229 3271.63 
0.00019 106.034 1.20038e+24 194.878 3229.7 
0.0001908 106.001 1.20206e+24 195.076 3237.53 
0.0001916 106.076 1.19709e+24 195.472 3230.7 
0.0001924 106.109 1.20672e+24 194.875 3246.72 
0.0001932 105.957 1.1929e+24 196.297 3232.98 
0.000194 106.138 1.20564e+24 194.46 3236.9 
0.0001948 106.022 1.21294e+24 193.865 3246.55 
0.0001956 106.075 1.21056e+24 194.352 3248.32 
0.0001964 105.969 1.19377e+24 195.791 3226.99 
0.0001972 106.012 1.21414e+24 192.648 3229.35 
0.000198 106.102 1.19706e+24 195.207 3226.23 
0.0001988 106.031 1.21691e+24 193.838 3256.71 
0.0001996 106.11 1.21199e+24 193.815 3243.18 
0.0002004 106.064 1.21359e+24 192.958 3233.1 
0.0002012 106.026 1.22912e+24 193.069 3276.36 
0.000202 105.998 1.23132e+24 191.129 3249.24 
0.0002028 105.959 1.20115e+24 193.977 3216.84 
0.0002036 106.024 1.21743e+24 192.458 3234.92 
0.0002044 106.101 1.20858e+24 192.834 3217.66 
0.0002052 106.057 1.22208e+24 191.417 3229.72 
0.000206 106.082 1.21648e+24 192.232 3228.6 
0.0002068 106.059 1.21804e+24 192.182 3231.89 
0.0002076 106.044 1.20843e+24 192.913 3218.59 
0.0002084 106.044 1.23403e+24 191.131 3256.4 
0.0002092 106.043 1.23607e+24 190.307 3247.74 
0.00021 106.029 1.22386e+24 190.81 3224.16 
0.0002108 105.964 1.2086e+24 192.093 3205.35 
0.0002116 105.995 1.22803e+24 191.339 3244.11 
0.0002124 106.079 1.21568e+24 193.46 3247.09 
0.0002132 106.021 1.20576e+24 194.442 3236.94 
0.000214 106.043 1.22106e+24 192.638 3247.59 
0.0002148 106.034 1.20701e+24 193.365 3222.35 
0.0002156 106.055 1.21331e+24 190.981 3199.23 
0.0002164 106.06 1.2353e+24 191.102 3259.26 
0.0002172 106.096 1.2021e+24 192.627 3196.99 
0.000218 106.035 1.22221e+24 190.87 3220.81 
0.0002188 106.04 1.20783e+24 193.108 3220.24 
0.0002196 106.067 1.19791e+24 194.586 3218.26 
0.0002204 106.009 1.23102e+24 191.888 3261.33 
0.0002212 106.109 1.21349e+24 192.99 3233.37 
0.000222 106.039 1.23588e+24 191.41 3266.05 
0.0002228 105.973 1.22379e+24 193.157 3263.63 
0.0002236 106.034 1.23097e+24 192.597 3273.25 
0.0002244 106.084 1.23476e+24 190.564 3248.68 
0.0002252 106.034 1.24217e+24 189.093 3242.96 
0.000226 106.149 1.23554e+24 192.33 3280.88 
0.0002268 106.081 1.21253e+24 191.678 3208.82 
0.0002276 106.059 1.20379e+24 192.536 3199.95 
0.0002284 106.037 1.23881e+24 191.602 3277.07 
0.0002292 106.084 1.2204e+24 195.426 3292.82 
0.00023 106.034 1.19339e+24 195.03 3213.42 
0.0002308 106.156 1.21905e+24 193.6 3258.44 
0.0002316 106.041 1.21185e+24 193.121 3231.2 
0.0002324 105.994 1.21426e+24 193.307 3240.73 
0.0002332 106.112 1.22369e+24 193.276 3265.39 
0.000234 106.04 1.21396e+24 193.234 3238.69 
0.0002348 106.06 1.22833e+24 191.732 3251.56 
0.0002356 106.063 1.22061e+24 191.959 3234.98 
0.0002364 106.019 1.22018e+24 191.614 3228.01 
0.0002372 106.074 1.21944e+24 192.152 3235.11 
0.000238 106.082 1.22304e+24 192.111 3243.98 
0.0002388 106.031 1.20004e+24 193.383 3204.05 
0.0002396 106.079 1.21161e+24 193.538 3237.52 
0.0002404 106.051 1.19784e+24 193.719 3203.7 
0.0002412 105.984 1.20491e+24 193.875 3225.24 
0.000242 105.987 1.21149e+24 193.188 3231.35 
0.0002428 106.081 1.21649e+24 191.447 3215.44 
0.0002436 106.055 1.19344e+24 193.83 3193.77 
0.0002444 106.055 1.21381e+24 193.011 3234.56 
0.0002452 106.077 1.19154e+24 193.614 3185.13 
0.000246 106.037 1.21528e+24 192.252 3225.75 
0.0002468 105.968 1.20023e+24 193.503 3206.53 
0.0002476 105.959 1.19081e+24 193.915 3188.15 
0.0002484 106.014 1.18203e+24 193.853 3163.62 
0.0002492 106.052 1.22137e+24 193.987 3271.17 
0.00025 106.065 1.22586e+24 191.865 3247.29 
0.0002508 106.029 1.20035e+24 192.292 3186.79 
0.0002516 106.12 1.20217e+24 192.239 3190.73 
0.0002524 105.963 1.20342e+24 192.001 3190.1 
0.0002532 106.122 1.20968e+24 191.376 3196.24 
0.000254 106.04 1.21501e+24 190.04 3187.92 
0.0002548 105.922 1.19813e+24 191.361 3165.5 
0.0002556 106.099 1.19849e+24 190.952 3159.66 
0.0002564 105.994 1.19941e+24 191.414 3169.75 
0.0002572 106.117 1.19133e+24 192.261 3162.33 
0.000258 106.054 1.21731e+24 190.669 3204.52 
0.0002588 106.042 1.17907e+24 192.453 3132.91 
0.0002596 106.119 1.21501e+24 189.571 3180.06 
0.0002604 106.063 1.18159e+24 192.332 3137.63 
0.0002612 106.009 1.22676e+24 188.42 3191.31 
0.000262 106.123 1.19256e+24 192.305 3166.3 
0.0002628 106.08 1.19478e+24 190.777 3147.02 
0.0002636 105.999 1.20635e+24 190.502 3172.91 
0.0002644 106.013 1.19104e+24 190.682 3135.58 
0.0002652 106.07 1.18633e+24 192.389 3151.14 
0.000266 106.079 1.18161e+24 191.797 3128.97 
0.0002668 106.043 1.21382e+24 189.357 3173.37 
0.0002676 105.956 1.19162e+24 191.189 3145.44 
0.0002684 106.018 1.21072e+24 190.195 3179.25 
0.0002692 106.029 1.21553e+24 189.496 3180.17 
0.00027 106.11 1.20673e+24 191.166 3184.96 
0.0002708 106.088 1.20882e+24 189.993 3170.9 
0.0002716 106.017 1.18954e+24 191.507 3145.21 
0.0002724 106.073 1.22142e+24 189.452 3194.82 
0.0002732 105.971 1.19262e+24 191.04 3145.64 
0.000274 105.994 1.1946e+24 191.049 3151 
0.0002748 105.981 1.195e+24 190.879 3149.25 
0.0002756 105.987 1.18918e+24 191.013 3136.12 
0.0002764 106.077 1.19242e+24 191.571 3153.85 
0.0002772 106.1 1.21256e+24 189.547 3173.26 
0.000278 106.081 1.18415e+24 192.482 3146.89 
0.0002788 105.998 1.19466e+24 191.829 3164.04 
0.0002796 106.074 1.1959e+24 191.302 3158.62 
0.0002804 106.124 1.19934e+24 192.544 3188.28 
0.0002812 106.093 1.18658e+24 192.117 3147.36 
0.000282 106.034 1.18744e+24 191.085 3132.71 
0.0002828 106.049 1.19176e+24 191.895 3157.43 
0.0002836 106.177 1.19624e+24 190.227 3141.76 
0.0002844 106.042 1.2132e+24 190.397 3189.15 
0.0002852 106.054 1.2005e+24 191.065 3166.84 
0.000286 105.958 1.1877e+24 191.408 3138.71 
0.0002868 106.113 1.19535e+24 191.594 3161.99 
0.0002876 106.016 1.19575e+24 191.055 3154.15 
0.0002884 106.039 1.1878e+24 191.511 3140.66 
0.0002892 105.984 1.19652e+24 190.928 3154.08 
0.00029 106.026 1.18526e+24 191.39 3131.98 
0.0002908 106.008 1.16315e+24 193.091 3100.84 
0.0002916 106.098 1.17774e+24 192.091 3123.49 
0.0002924 106.05 1.16816e+24 193.49 3120.65 
0.0002932 106.067 1.17182e+24 191.958 3105.64 
0.000294 106.073 1.17684e+24 192.488 3127.53 
0.0002948 106.018 1.19232e+24 188.673 3105.87 
0.0002956 106.046 1.15593e+24 191.407 3054.74 
0.0002964 106.021 1.17028e+24 191.215 3089.55 
0.0002972 105.958 1.18392e+24 190.5 3113.87 
0.000298 106.125 1.18457e+24 190.065 3108.48 
0.0002988 106.075 1.17518e+24 191.919 3113.9 
0.0002996 106.006 1.16608e+24 190.463 3066.35 
0.0003004 105.91 1.17463e+24 192.051 3114.58 
0.0003012 105.977 1.1787e+24 189.393 3082.13 
0.000302 106.114 1.17689e+24 190.941 3102.55 
0.0003028 106.009 1.18688e+24 189.628 3107.37 
0.0003036 106.106 1.16881e+24 191.231 3085.92 
0.0003044 106.118 1.16411e+24 191.043 3070.48 
0.0003052 106.088 1.17627e+24 190.685 3096.74 
0.000306 106.08 1.17235e+24 191.961 3107.1 
0.0003068 106.101 1.19054e+24 189.671 3117.64 
0.0003076 106.057 1.18119e+24 190.697 3109.9 
0.0003084 106.096 1.15999e+24 193.894 3105.29 
0.0003092 105.948 1.20465e+24 191.838 3190.65 
0.00031 106.082 1.1907e+24 190.952 3139.15 
0.0003108 105.998 1.17835e+24 191.497 3115.46 
0.0003116 106.123 1.18417e+24 190.833 3119.98 
0.0003124 105.965 1.16099e+24 193.099 3095.24 
0.0003132 106.097 1.18618e+24 192.566 3153.64 
0.000314 106.059 1.17043e+24 191.566 3095.62 
0.0003148 106.036 1.1597e+24 193.243 3094.1 
0.0003156 106 1.16309e+24 194.299 3120.07 
0.0003164 106.011 1.15936e+24 195.655 3131.78 
0.0003172 106.054 1.16546e+24 195.582 3147.1 
0.000318 106.052 1.17377e+24 193.946 3143.02 
0.0003188 106.077 1.18676e+24 193.997 3178.64 
0.0003196 106.11 1.19395e+24 193.16 3184.11 
0.0003204 106.196 1.17091e+24 194.771 3148.7 
0.0003212 106.114 1.17575e+24 194 3149.2 
0.000322 106.095 1.19256e+24 194.444 3201.55 
0.0003228 106.009 1.18205e+24 194.494 3174.14 
0.0003236 106.068 1.19109e+24 194.431 3197.37 
0.0003244 106.098 1.1931e+24 192.747 3175.02 
0.0003252 106.07 1.19437e+24 192.519 3174.64 
0.000326 106.051 1.20112e+24 193.946 3216.25 
0.0003268 106.155 1.19093e+24 195.082 3207.66 
0.0003276 106.187 1.19227e+24 195.385 3216.24 
0.0003284 106.072 1.20073e+24 195.365 3238.74 
0.0003292 106.058 1.21659e+24 193.627 3252.31 
0.00033 106.115 1.20244e+24 193.675 3215.31 
0.0003308 106.234 1.20305e+24 196.419 3262.5 
0.0003316 106.073 1.20086e+24 195.317 3238.28 
0.0003324 105.987 1.19342e+24 195.886 3227.61 
0.0003332 106.113 1.19317e+24 197.567 3254.63 
0.000334 106.043 1.19599e+24 198.317 3274.71 
0.0003348 106.13 1.20122e+24 197.518 3275.76 
0.0003356 106.1 1.17049e+24 198.698 3211.04 
0.0003364 106.048 1.19424e+24 196.797 3244.85 
0.0003372 106.116 1.19616e+24 196.653 3247.67 
0.000338 106.072 1.18597e+24 198.185 3245.11 
0.0003388 106.063 1.20034e+24 197.615 3274.98 
0.0003396 106.047 1.17352e+24 199.285 3228.85 
0.0003404 106.117 1.17952e+24 198.963 3240.11 
0.0003412 105.968 1.18908e+24 197.419 3241.03 
0.000342 106.109 1.18347e+24 198.361 3241.14 
0.0003428 106.042 1.17079e+24 199.186 3219.76 
0.0003436 106.094 1.20133e+24 198.009 3284.22 
0.0003444 106.158 1.18216e+24 200.29 3269.03 
0.0003452 106.141 1.16939e+24 200.72 3240.66 
0.000346 106.055 1.19072e+24 198.238 3258.97 
0.0003468 106.133 1.14753e+24 201.871 3198.31 
0.0003476 106.157 1.18887e+24 199.774 3279.1 
0.0003484 106.206 1.1834e+24 199.921 3266.44 
0.0003492 106.115 1.17778e+24 199.76 3248.31 
0.00035 106.078 1.16015e+24 202.455 3242.85 
0.0003508 106.247 1.15935e+24 200.056 3202.2 
0.0003516 106.118 1.14932e+24 201.373 3195.39 
0.0003524 106.207 1.16299e+24 201.009 3227.58 
0.0003532 106.058 1.15269e+24 200.561 3191.86 
0.000354 106.115 1.15917e+24 201.306 3221.7 
0.0003548 106.094 1.13751e+24 202.569 3181.35 
0.0003556 106.266 1.15425e+24 201.943 3218.19 
0.0003564 106.133 1.13261e+24 202.877 3172.45 
0.0003572 106.089 1.12036e+24 202.394 3130.67 
0.000358 106.075 1.14111e+24 202.742 3194.14 
0.0003588 106.182 1.11341e+24 203.173 3123.25 
0.0003596 106.058 1.14237e+24 201.391 3176.38 
0.0003604 106.098 1.11706e+24 203.22 3134.19 
0.0003612 106.266 1.1214e+24 202.866 3140.89 
0.000362 106.141 1.12562e+24 201.679 3134.26 
0.0003628 106.128 1.12626e+24 200.346 3115.33 
0.0003636 106.177 1.12399e+24 200.325 3108.73 
0.0003644 106.082 1.12872e+24 201.195 3135.35 
0.0003652 105.99 1.10173e+24 204.337 3108.17 
0.000366 106.227 1.0966e+24 203.664 3083.52 
0.0003668 106.172 1.10847e+24 202.977 3106.39 
0.0003676 106.159 1.07913e+24 203.719 3035.21 
0.0003684 106.207 1.06433e+24 204.566 3006.03 
0.0003692 106.132 1.08547e+24 203.704 3052.81 
0.00037 106.199 1.07269e+24 204.826 3033.49 
0.0003708 106.12 1.10082e+24 203.248 3089.06 
0.0003716 106.009 1.05454e+24 205.198 2987.59 
0.0003724 106.137 1.07651e+24 205.229 3050.29 
0.0003732 106.147 1.06525e+24 206.336 3034.66 
0.000374 106.139 1.05824e+24 205.67 3004.97 
0.0003748 106.265 1.0505e+24 205.808 2984.96 
0.0003756 106.167 1.0686e+24 205.726 3035.19 
0.0003764 106.183 1.03137e+24 210.311 2994.75 
0.0003772 106.203 1.04107e+24 209.934 3017.5 
0.000378 106.095 1.03176e+24 210.615 3000.22 
0.0003788 106.161 1.00895e+24 212.282 2957.1 
0.0003796 106.321 1.00705e+24 213.278 2965.37 
0.0003804 106.335 1.00166e+24 213.633 2954.44 
0.0003812 106.338 9.98634e+23 214.232 2953.76 
0.000382 106.21 1.00521e+24 214.457 2976.33 
0.0003828 106.193 9.96386e+23 216.219 2974.44 
0.0003836 106.163 9.81633e+23 217.785 2951.62 
0.0003844 106.251 9.59722e+23 219.701 2911.12 
0.0003852 106.293 9.43691e+23 221.154 2881.43 
0.000386 106.254 9.44621e+23 220.918 2881.19 
0.0003868 106.288 9.37378e+23 222.356 2877.7 
0.0003876 106.192 9.30374e+23 223.521 2871.17 
0.0003884 106.205 9.17039e+23 224.321 2840.15 
0.0003892 106.364 9.06622e+23 225.372 2821.04 
0.00039 106.399 9.08999e+23 225.41 2828.91 
0.0003908 106.313 8.93922e+23 226.266 2792.56 
0.0003916 106.224 8.63275e+23 229.858 2739.63 
0.0003924 106.291 8.61774e+23 228.737 2721.53 
0.0003932 106.319 8.40344e+23 229.986 2668.34 
0.000394 106.4 8.3902e+23 230.385 2668.76 
0.0003948 106.515 8.24873e+23 229.714 2616.12 
0.0003956 106.394 8.01545e+23 230.122 2546.65 
0.0003964 106.616 7.83605e+23 228.427 2471.32 
0.0003972 106.613 7.58086e+23 229.554 2402.63 
0.000398 106.508 7.22269e+23 229.993 2293.49 
0.0003988 106.667 6.72605e+23 231.357 2148.46 
0.0003996 135.396 8.62381e+25 244.137 290680 
