ITEM: TIMESTEP
500000
ITEM: NUMBER OF CELLS
125
ITEM: BOX BOUNDS pp ss pp
0 0.0001
0 1e-06
0 0.0001
ITEM: CELLS yc f_vel[1] f_vel[2] f_vel[3] f_mom[1] f_mom[2] f_mom[3] f_mom[4] f_q[1] f_q[2] f_q[3] 
4e-09 0.984924 0.057215 -1.81524e-10 109150 102362 109250 -397.849 -1521.06 -10360.9 4568.56 
1.2e-08 1.0572 -0.0297107 5.05126e-10 102787 102250 102736 -348.066 6797.15 -1228.54 9664.77 
2e-08 1.45635 0.0172733 -2.56575e-11 102871 102273 102924 -366.353 -18241.8 -3221.49 -18778.2 
2.8e-08 1.61547 -0.00169554 -2.1396e-10 102648 102239 102600 -376.4 -19084.3 7119.96 7956.72 
3.6e-08 1.75147 0.0400702 4.5963e-11 102419 102243 102536 -379.524 -16622.9 -4609.95 -721.213 
4.4e-08 1.45561 -0.0399869 -1.71861e-10 102250 102201 102297 -356.962 55315.8 -9724.5 21788.7 
5.2e-08 1.6979 0.0282443 -3.33169e-10 102291 102267 102357 -391.301 50218 -5211.49 23194.3 
6e-08 1.9218 0.0107108 -6.63265e-11 102078 102249 102216 -332.784 4515.51 93.1223 -4363.13 
6.8e-08 2.19021 -0.0661683 1.38863e-10 102041 102203 102111 -380.862 9975.92 -1547.37 -12856.7 
7.6e-08 2.27783 0.087797 -4.35026e-11 102092 102222 102193 -358.758 24390.3 -8323.64 -35597.2 
8.4e-08 2.26003 -0.00126582 2.70306e-10 101978 102237 102071 -381.429 21416.6 -1784.37 5806.61 
9.2e-08 2.73339 -0.00705494 1.0208e-10 102050 102256 102064 -365.273 17395.1 -8942.86 -54160.1 
1e-07 2.69676 0.0232095 -1.05018e-10 101722 102200 101771 -370.794 30631.9 3954.37 -30915.8 
1.08e-07 2.84901 -0.107131 -2.1852e-10 101817 102188 101829 -400.275 23350.9 -7510.1 -39266 
1.16e-07 3.09885 0.120486 1.45245e-10 101877 102231 102003 -338.358 36587.1 -2320.67 11212.5 
1.24e-07 3.27418 -0.0730741 4.92355e-10 101843 102230 101998 -374.264 -14982.1 -9618.74 -15981.8 
1.32e-07 3.32742 0.00145447 3.41072e-10 101953 102181 101915 -369.041 20349 88.3634 40117.6 
1.4e-07 3.54242 0.0213078 3.65809e-10 101948 102218 101772 -377.396 20529.5 -11711.1 47062.4 
1.48e-07 3.61343 0.0125098 -1.85227e-10 102094 102223 102026 -336.742 27191.2 2067.31 18972.2 
1.56e-07 4.01155 0.000734567 1.82182e-10 101751 102254 101709 -385.834 34947 -12569.7 22227.8 
1.64e-07 3.91954 -0.0366766 -1.49314e-10 101758 102206 101753 -393.187 29192.4 2013.13 7533.2 
1.72e-07 3.95109 -0.0123035 1.47891e-10 101886 102210 101756 -351.069 8054.18 -6296.58 41652.8 
1.8e-07 3.97028 0.00937327 -2.7203e-10 101810 102222 101995 -377.337 -2209.01 -8717.97 5073.68 
1.88e-07 4.23496 0.0486114 -2.09301e-10 102049 102239 101978 -392.792 6444.93 -5578.51 15298 
1.96e-07 4.67741 -0.0334804 1.64579e-11 101680 102172 101829 -337.31 -40367.9 -731.656 -19150.4 
2.04e-07 4.74423 0.0185387 -4.04608e-10 101695 102263 101686 -383.32 32295.9 -2138.08 29887.5 
2.12e-07 4.59036 0.050068 -3.60001e-10 101860 102186 101860 -369.766 7840.16 -1365.57 24664.8 
2.2e-07 5.02231 -0.0219735 2.33104e-13 101986 102245 101869 -393.938 10086 -7802.14 -28051.3 
2.28e-07 4.95036 0.0062413 8.96814e-11 101810 102228 101585 -371.096 24111.8 -2625.9 -3624.94 
2.36e-07 5.0448 -0.00898444 -3.37238e-10 101798 102136 101813 -362.747 -25619 3744.02 -26585.3 
2.44e-07 5.29233 -0.0425992 -1.90128e-10 101936 102266 101947 -403.782 -19462.8 855.366 -7471.75 
2.52e-07 5.39968 0.0309566 -3.09895e-10 101890 102228 101803 -367.428 -21840.4 -1395.8 5313.46 
2.6e-07 5.42355 -0.033826 1.39819e-10 101837 102168 101711 -349.665 21543.3 -14939.4 -14650.8 
2.68e-07 5.92241 0.0392479 -5.22774e-11 101809 102218 101795 -372.058 -33813.3 -180.977 -27195.9 
2.76e-07 5.97858 -0.0536275 -3.19639e-12 101818 102236 101829 -370.454 -25016.6 57.5841 -23311.4 
2.84e-07 5.61862 -0.0615783 -3.98364e-11 102017 102245 102047 -359.756 17051.8 -1793.58 35744 
2.92e-07 6.06836 0.0976288 -2.94537e-10 101762 102140 101571 -400.013 357.568 -7535.08 46316.7 
3e-07 6.08064 0.00722526 -3.2626e-10 102038 102282 101930 -375.917 -3546.07 -16672.2 17992.5 
3.08e-07 6.61379 0.0104708 3.56443e-11 101956 102169 101814 -377.053 -672.079 525.973 -22469.4 
3.16e-07 6.65021 -0.0491018 -2.2471e-10 101836 102226 101764 -350.672 -4617.4 1228.36 -22067.8 
3.24e-07 6.79849 0.00777852 -1.34576e-10 101616 102192 101758 -367.025 -9201.21 -11735.4 745.897 
3.32e-07 6.95099 -0.024112 1.321e-10 101769 102227 101825 -388.985 -23032.7 6791.86 20498.5 
3.4e-07 7.02906 -0.0244136 1.27899e-10 101801 102229 101760 -358.3 23851.6 -12736.6 25913.6 
3.48e-07 6.91597 0.122826 -3.04015e-11 101552 102208 101706 -378.432 21537.3 6701.8 -10511.4 
3.56e-07 7.39488 -0.05306 2.47546e-10 101899 102199 101723 -357.919 11236.4 -11312.2 -12225.3 
3.64e-07 7.3906 0.00919801 -3.87426e-10 101757 102182 101614 -380.401 5215.41 6348.96 7155.01 
3.72e-07 7.52685 -0.0269478 -2.5191e-10 101899 102240 101876 -387.752 29567.9 -12992.6 32252.5 
3.8e-07 7.7837 -0.0215026 -1.83483e-10 101547 102223 101630 -378.688 -10090.8 1735.19 26950.6 
3.88e-07 7.63066 0.00393941 -2.15599e-10 101629 102159 101708 -350.862 41232.3 7462.91 19251.2 
3.96e-07 7.85607 -0.0402184 2.42868e-11 101971 102260 101730 -370.397 24316.4 -4302.99 23633.6 
4.04e-07 8.23731 0.0412968 -3.077e-10 101922 102157 101840 -361.864 13553.9 -1377.42 66070 
4.12e-07 8.28799 0.0156044 -3.10937e-10 101807 102267 101849 -391.214 -10718.5 791.795 35206.2 
4.2e-07 8.45171 -0.0817449 -3.0995e-10 101532 102201 101703 -358.724 -70939.2 -7241.81 51365.7 
4.28e-07 8.73363 0.038846 1.34433e-10 101706 102178 101854 -363.367 -17678.7 6020.98 44318.8 
4.36e-07 8.98887 -0.0330522 -4.57775e-10 101412 102246 101668 -351.185 -38871.4 -9913.84 74312.8 
4.44e-07 8.89957 0.0550431 -1.07226e-10 101661 102191 101819 -390.792 1031.38 -2232.73 48148 
4.52e-07 8.67477 -0.0153924 -3.55663e-10 101541 102248 101815 -387.863 13391 -2022.96 52426.3 
4.6e-07 9.19615 -0.064132 -1.77381e-10 101735 102196 101653 -389.564 -14415 -2510.93 26044 
4.68e-07 9.36738 0.0512519 -2.09286e-10 101681 102208 101631 -359.088 5816.96 -8184.05 38953.9 
4.76e-07 9.36775 0.0143463 1.05814e-11 101744 102214 101713 -361.339 28360.7 -1186.61 -24207 
4.84e-07 9.56217 -0.0371695 -2.37434e-11 101886 102185 101864 -348.799 47399.7 -3566.48 -20816.7 
4.92e-07 9.79977 0.0267464 -3.95474e-10 101676 102214 101767 -379.166 25879.6 8785.98 -48479.4 
5e-07 9.76848 -0.0048961 9.16325e-11 101649 102225 101699 -379.935 -3958.58 3827.66 6771.18 
5.08e-07 9.79791 0.00676017 -4.55448e-10 101733 102202 101626 -354.316 11916 -1711.01 701.339 
5.16e-07 9.86259 -0.0244554 -1.29364e-10 102011 102260 101897 -361.979 25741.7 2575.58 -35333.5 
5.24e-07 10.2431 -0.034389 -2.84467e-10 101764 102162 101711 -374.696 36357.7 5338.49 5281.22 
5.32e-07 10.2809 0.0110382 1.82998e-10 101813 102216 101628 -390.966 36467.8 -4117.7 -30724.9 
5.4e-07 10.3272 -0.0290773 4.42246e-10 101612 102196 101672 -379.504 21327 -4776.48 -2381.66 
5.48e-07 10.712 0.0471957 -1.15039e-10 101827 102183 101759 -334.412 -4147.88 7827.68 -6566.23 
5.56e-07 10.8355 -0.0213027 2.86362e-10 101712 102246 101745 -380.295 -1800.68 -7126.76 -2281.73 
5.64e-07 10.6266 0.101632 -1.08742e-10 101760 102227 101852 -362.009 19070.5 -2402.23 11392.9 
5.72e-07 11.0862 -0.0304803 -2.04163e-10 101833 102175 101908 -408.008 -3523.25 -4208.39 32200.7 
5.8e-07 11.2939 -0.113677 -3.604e-10 101704 102225 101865 -332.963 -16630.9 -602.417 -1231.74 
5.88e-07 11.2735 0.0268746 -1.68665e-10 101907 102225 101972 -395.577 -16891.8 -2108.89 38914.7 
5.96e-07 11.3343 0.00672618 3.96404e-11 101682 102221 101793 -377.045 32364.2 2141.23 -3715.14 
6.04e-07 11.6377 0.022035 -9.27149e-11 101902 102224 101799 -367.762 5968.62 -5418.25 44715.3 
6.12e-07 11.5974 -0.0492887 -1.43543e-10 101807 102154 101788 -406.184 -185.722 2779.61 9144.14 
6.2e-07 12.0522 -0.039618 -1.01265e-11 101871 102202 101817 -365.377 3869.08 -9870.44 7339.19 
6.28e-07 11.7293 0.106688 -3.80747e-10 101680 102201 101875 -334.829 44476.4 -1304.16 13815.5 
6.36e-07 12.0658 -0.055106 6.19705e-11 101736 102269 101872 -388.468 40434.3 1357.65 -18926.1 
6.44e-07 12.4571 0.0192005 -2.55767e-11 101689 102182 101769 -373.533 -6783.81 -2610.65 9809.21 
6.52e-07 12.554 0.00434839 1.09905e-10 101780 102217 101766 -401.476 -14905 -5254.91 40623.9 
6.6e-07 12.6166 0.0073206 -1.57138e-10 101671 102217 101631 -369.156 1053.48 13731.8 -5868.61 
6.68e-07 12.5573 -0.0474299 6.73242e-11 101683 102211 101599 -356.479 32920.2 -13172.7 38724.6 
6.76e-07 12.7234 0.0324539 -2.64841e-10 101721 102241 101763 -373.131 -18713.9 9411.53 200.059 
6.84e-07 13.1196 0.000913144 -2.71143e-10 101646 102146 101462 -355.127 27300.6 -4578.39 -13243.2 
6.92e-07 13.1246 -0.0111593 -1.84334e-10 101848 102267 101846 -394.643 2302.76 559.764 14119.1 
7e-07 13.3652 0.00145071 -1.36751e-10 101823 102189 101711 -364.531 13020.3 -7182.09 -36398.4 
7.08e-07 13.459 0.0953461 -7.73573e-11 101874 102198 101796 -387.354 -7649.68 6670.54 30421.9 
7.16e-07 13.4351 -0.0851214 -5.05772e-10 101601 102208 101695 -371.857 -18553.2 212.071 -31276.5 
7.24e-07 13.572 0.0608437 5.21129e-11 101838 102266 101629 -358.832 -17951.1 -3598.75 -28340.7 
7.32e-07 13.669 -0.0549748 -1.87947e-10 101821 102217 101740 -357.499 -11867.8 6430.74 8716.11 
7.4e-07 13.8481 0.0200384 -4.20678e-11 101785 102216 101826 -380.5 -16909.6 6296.53 31582.8 
7.48e-07 13.8878 0.00438577 6.30756e-11 101821 102188 101809 -395.097 6743.02 -5779.01 -19826.9 
7.56e-07 13.9594 0.00261143 2.24184e-10 101749 102184 101651 -352.178 22942 3548.77 -28065.1 
7.64e-07 14.2898 -0.038644 1.15602e-10 101653 102209 101758 -379.759 3380.62 1592.44 2246.89 
7.72e-07 14.4212 0.0650762 -3.52232e-10 101709 102185 101823 -387.271 39073.6 2112.05 13873.8 
7.8e-07 14.5193 -0.0593473 -3.18777e-10 101694 102240 101698 -361.683 12313 -1158.17 -15204.5 
7.88e-07 14.5726 0.0294559 -2.07484e-10 101883 102270 101874 -388.676 15978.2 -2894.43 -21025.3 
7.96e-07 14.7811 -0.0452225 -4.53123e-12 101925 102152 101835 -376.577 -12633.8 3716.67 -43045.8 
8.04e-07 14.8049 0.0142973 -2.25467e-11 101837 102231 101819 -350.925 28032.7 7837.48 -33220.2 
8.12e-07 15.009 0.0355534 -2.23453e-10 101978 102206 102047 -374.806 -1299.54 337.262 24437.5 
8.2e-07 15.2663 0.0134401 -4.32558e-10 101972 102234 102008 -394.759 13811.9 -5093.22 -1077.46 
8.28e-07 15.1342 0.014304 1.14505e-10 101959 102267 101967 -362.22 14950.7 3095.76 3457.97 
8.36e-07 15.7025 -0.0116056 1.35808e-10 101876 102156 101989 -351.383 -25612.9 1247.05 -44461.9 
8.44e-07 15.6952 -0.076424 -2.73229e-10 101932 102221 102156 -391.232 -8648.62 4448.22 12523.2 
8.52e-07 15.7739 -0.00316136 2.4029e-10 101921 102169 101802 -356.416 4835.38 850.412 18531.3 
8.6e-07 16.095 0.0657149 -5.02669e-10 101748 102211 101661 -363.615 -4386.38 -3298.17 1864.9 
8.68e-07 16.1129 -0.00424283 -3.62855e-10 101738 102219 101655 -400.622 22717.9 -8677.12 -36277.8 
8.76e-07 16.3698 -0.0248831 8.84099e-11 101784 102215 101804 -331.979 5991.05 -3096.84 35592.5 
8.84e-07 16.567 0.107254 -6.48851e-11 101862 102258 101905 -389.896 -39169.8 10790.2 -12613.6 
8.92e-07 16.5648 -0.132783 -2.77182e-10 101973 102288 101856 -367.066 14810.7 -11762.2 13756.8 
9e-07 16.5706 -0.01404 1.78166e-10 101923 102143 102034 -361.004 -20817.7 1268.71 -7623.72 
9.08e-07 17.0098 0.058356 6.01878e-11 101988 102239 101973 -395.945 -46377.4 -3617.81 5332.15 
9.16e-07 16.8704 0.0182279 -2.4691e-10 102200 102273 102126 -372.624 -28076.4 -1752.41 10041.5 
9.24e-07 17.0615 -0.0688779 -4.10472e-11 101804 102160 101946 -362.357 -46732.3 -5567.37 6504.94 
9.32e-07 16.9189 0.0928883 -2.91129e-10 102036 102276 102320 -399.839 20095.2 6387.8 -9136.42 
9.4e-07 17.0945 -0.0413637 -1.82829e-10 101930 102193 101969 -359.01 27346.3 -7101.23 21064.5 
9.48e-07 17.5668 -0.0227073 1.71404e-10 102159 102227 102007 -357.54 -51.3713 11305.3 70798.8 
9.56e-07 17.8177 -0.0570403 2.64718e-10 102147 102282 102156 -378.619 -46886.3 -9684.05 -34171.6 
9.64e-07 18.0443 0.176133 -3.41361e-10 102374 102179 102305 -355.125 -21612.3 -11346.1 -29538 
9.72e-07 17.9484 -0.0512157 -4.30918e-10 102600 102273 102674 -387.642 -31035.1 10267.6 8350.57 
9.8e-07 18.0194 -0.0448979 -1.87597e-10 102731 102256 102680 -368.369 -22179.8 -13196.2 2110.51 
9.88e-07 18.1929 -0.0163498 1.58629e-10 102916 102220 102690 -355.225 8848.12 -2328.95 8883.96 
9.96e-07 18.7718 -0.0434862 -2.15065e-10 109274 102357 109003 -364.043 -52355.1 10049.1 7413.33 
