ITEM: TIMESTEP
500000
ITEM: NUMBER OF CELLS
125
ITEM: BOX BOUNDS pp ss pp
0 0.0001
0 1e-06
0 0.0001
ITEM: CELLS yc f_vel[1] f_vel[2] f_vel[3] f_mom[1] f_mom[2] f_mom[3] f_mom[4] f_q[1] f_q[2] f_q[3] 
4e-09 1.68012 -0.0192852 1.96603e-10 102074 102013 102054 -377.482 32565.1 -4543.94 -23248.2 
1.2e-08 1.56019 -0.0112813 2.34631e-10 102053 101930 102123 -387.24 47681.3 -13757.1 -18588.7 
2e-08 1.65914 -0.00454125 7.09276e-11 102138 101989 102194 -370.208 26302.9 -11326.6 -336.269 
2.8e-08 1.84654 0.0131803 9.6642e-11 101898 101951 102064 -395.967 4235.24 -12249.6 13488.8 
3.6e-08 2.03635 0.0124265 -2.94846e-11 101965 101981 102008 -398.996 32583.6 -7964.77 21559.7 
4.4e-08 2.30727 -0.0147696 2.27145e-10 101912 101994 102010 -361.523 58019.5 -21263.4 -25812.3 
5.2e-08 2.62969 0.00282316 -1.69424e-11 101953 101970 101910 -399.327 47960.7 -6535.45 -3277.77 
6e-08 2.80768 -0.0186385 -2.12256e-11 101729 101945 101825 -368.988 48489.1 -18721.9 -27515 
6.8e-08 3.06799 0.0228521 4.91344e-11 101850 101983 101916 -377.51 15600.4 -5433.99 -25114 
7.6e-08 2.99187 -0.0104113 3.30733e-11 101893 102004 101925 -406.393 29911.9 -9702.48 -12206.3 
8.4e-08 3.14686 -0.00789677 1.00475e-10 101900 101950 101896 -357.288 22387.9 -13381.7 1742.93 
9.2e-08 3.1449 0.02279 3.00809e-11 101965 101986 101972 -406.125 34537.8 -9188.57 -10171 
1e-07 3.48705 -0.0307781 5.31105e-11 101866 101934 101798 -378.173 10727.5 -15033 9023.06 
1.08e-07 3.50426 -0.0122299 -2.91171e-10 101768 102016 101884 -367.98 -11270.1 -10048 14561.7 
1.16e-07 3.71012 0.0397406 1.85443e-10 101838 101953 102084 -392.031 -7279.89 -437.26 10436.9 
1.24e-07 3.79752 -0.0277389 -2.82289e-11 101870 101920 101909 -383.406 -7103.26 -19724.9 16110.7 
1.32e-07 4.02421 -0.063377 1.75742e-10 101797 101996 101982 -380.772 -17781.5 -4880.52 27951.3 
1.4e-07 3.98558 0.0243702 4.28153e-11 101949 101968 102043 -376.914 -10121.1 -9065.86 -2531.02 
1.48e-07 4.04991 0.033157 7.00775e-11 101874 101979 101999 -370.211 -2971.22 -8407.22 18554.6 
1.56e-07 4.18987 -0.0608711 2.258e-10 101861 101997 101958 -404.329 14581.1 -17537 30973.4 
1.64e-07 4.18559 0.102834 -1.15768e-10 101867 101934 102045 -381.318 9835 -4808.02 31375.8 
1.72e-07 4.40951 -0.052827 2.54489e-10 101852 102030 101855 -379.465 13949 -11134.7 38545.8 
1.8e-07 4.79935 -0.000705827 1.31507e-10 101892 101937 101743 -364.944 -9925.32 -11261.6 -5417.07 
1.88e-07 4.99326 0.0095351 -2.25214e-11 101848 101942 101771 -369.406 -2457.6 -14623.7 16012.4 
1.96e-07 5.00899 -0.00409778 5.41255e-11 101919 102000 101749 -379.71 31385.9 -5485.86 390.235 
2.04e-07 5.25667 -0.000268626 1.78279e-10 101915 101942 101767 -398.579 8238.87 -13423.5 24707.8 
2.12e-07 5.35966 0.00206715 1.82659e-10 101868 101956 101710 -381.118 3565.83 -6060.49 -3108.4 
2.2e-07 5.55949 -0.0267176 5.30982e-11 101847 101986 101804 -416.813 -23360.5 -15733.9 34182.9 
2.28e-07 5.6744 -0.0172938 2.99399e-10 101884 101973 102009 -375.796 14060.5 -13284.1 39032.7 
2.36e-07 5.51873 0.0465539 1.09862e-10 101783 102007 102020 -354.957 -6587.46 -13182.6 16152.3 
2.44e-07 5.73165 -0.01976 4.61798e-10 101731 101946 101826 -409.185 -37428.5 -2037.32 11249.9 
2.52e-07 5.93897 0.020395 1.51958e-10 101829 101949 101893 -382.795 -45319.7 -10685.7 40344.6 
2.6e-07 6.19212 0.0048383 2.32136e-11 101888 101999 101944 -365.378 -23507.2 -5830.6 30810.8 
2.68e-07 6.46468 0.0149909 -2.66257e-10 101813 102010 101915 -398.439 -3874.1 -13144.4 39928.1 
2.76e-07 6.38645 -0.0118718 -7.48717e-11 101854 101910 101946 -368.39 11005.4 -4856.6 25825 
2.84e-07 6.51595 -0.0161227 7.29957e-10 101825 101980 101902 -382.042 33552.3 -14148.1 54298.7 
2.92e-07 6.65869 -0.013705 8.98437e-11 101977 101998 101855 -395.163 38211.5 -7695.81 29729.8 
3e-07 7.05617 0.0448673 3.32804e-10 102072 101997 101904 -393.298 -3676.25 -7224.84 39993.2 
3.08e-07 6.99517 -0.0285085 -6.57691e-12 101947 101974 101949 -369.427 -21673.2 -11192.3 40025.5 
3.16e-07 7.2913 -0.00464796 -1.28013e-10 101750 101978 101796 -373.172 -33321 -7595.35 25902.9 
3.24e-07 7.25083 0.00948211 1.55041e-10 101868 101967 101857 -379.873 -67112.8 -13082.9 11645.3 
3.32e-07 7.19454 -0.00645356 1.64103e-10 101879 101953 101872 -383.956 3723.09 -6494.3 26268.6 
3.4e-07 7.47726 0.000404069 1.28881e-10 101979 102001 101910 -386.514 -23539.5 -8923.25 9691.98 
3.48e-07 7.63789 0.0101161 -9.27033e-12 101872 101955 101700 -399.38 6660.82 -11992.6 46978 
3.56e-07 7.69817 -0.00584657 1.27787e-10 101965 102003 101790 -374.829 -3144.1 -6558.34 36848.4 
3.64e-07 7.82975 -0.00812042 1.95505e-10 102002 101906 101982 -387.566 -4986.9 -10780.3 -10738.6 
3.72e-07 8.01508 -0.0224839 1.37811e-10 101911 102009 101818 -360.363 1373.81 -9397.83 33210.1 
3.8e-07 8.1686 0.0411154 2.6693e-10 101760 101977 101682 -408.874 5338.38 -9264.51 36693.8 
3.88e-07 8.43172 -0.00644281 -1.36002e-10 101768 101967 101783 -394.188 -14548 -4712.73 -14269.9 
3.96e-07 8.4593 -0.00987456 -4.54691e-10 101731 102004 101725 -348.617 25029.7 -8099.07 -1890.94 
4.04e-07 8.49177 0.00335101 2.60534e-10 101804 101929 101766 -369.763 21787.8 -17008 162.742 
4.12e-07 8.9626 0.023028 -7.0507e-11 101890 101992 101932 -394.62 -18262.4 5490.36 -16057.1 
4.2e-07 8.7452 0.00378171 -7.49483e-11 101772 101953 101861 -377.443 -16014 -7656.2 -27493.6 
4.28e-07 8.82542 -0.0518196 3.21986e-10 101842 101957 101925 -381.39 -28825 -22575.5 -4583.22 
4.36e-07 9.02341 0.0460784 1.61958e-10 102009 101973 101953 -377.844 -21083.3 -2814.87 27003.9 
4.44e-07 9.17569 -0.00483087 2.46467e-10 101772 101984 101914 -372.742 -24106.5 -11242.3 28707.2 
4.52e-07 9.20947 0.0366517 -1.6947e-10 101732 101983 101866 -395.016 -10284.7 -11245.2 27610.8 
4.6e-07 9.15212 -0.061289 1.08516e-10 101833 101982 101983 -375.961 -20049.9 -11150.7 -14881.7 
4.68e-07 9.43116 0.0411228 -2.36879e-10 102077 101939 102054 -373.423 -25597.3 1795.86 -33836.9 
4.76e-07 9.58509 -0.0235315 2.59842e-10 102022 102021 102020 -384.219 -28951.5 -13784.7 -13500.1 
4.84e-07 9.49106 0.0411221 1.47233e-10 101932 101971 101825 -379.222 -14651.3 -19212.8 -29716.3 
4.92e-07 9.91431 -0.0113264 3.87206e-10 101951 101937 102011 -383.618 -13581.8 -5910.06 -15620.4 
5e-07 10.1078 -0.0117284 2.79863e-11 101956 102024 102055 -385.386 1897.4 -13087.4 -38426 
5.08e-07 10.2609 0.0408657 3.27507e-10 101886 101951 101877 -389.347 -17840.7 -4478.67 24385.1 
5.16e-07 10.3186 -0.0205007 3.73246e-10 101973 101938 101840 -364.269 18015 -11660.9 6773.86 
5.24e-07 10.474 -0.000159683 -2.86729e-10 102133 102026 101974 -391.466 -5150.92 -14185.9 -11060.1 
5.32e-07 10.4127 0.0054783 -6.59843e-11 101987 101953 101992 -371.414 10396.7 -10115.2 -59597.4 
5.4e-07 10.2362 -0.0173544 -2.686e-10 101921 101954 102153 -410.34 -20409.7 4460.67 -6053.21 
5.48e-07 10.4546 0.00449959 8.40737e-12 101974 101984 102068 -386.162 -4161.34 -12629.3 20192.7 
5.56e-07 10.6198 -0.00561129 1.92781e-10 102032 101943 102075 -366.704 43276.6 -14347.3 -17675.3 
5.64e-07 10.85 -0.00289048 6.46876e-11 101974 101976 102048 -395.632 14965.5 -11453.6 5741.61 
5.72e-07 10.9722 0.0565366 -2.07113e-10 102033 101999 102039 -368.147 3.35667 -11188.7 13317.8 
5.8e-07 11.0651 -0.00406002 4.48782e-10 102043 101960 102162 -392.698 51411.1 -56.5681 13074.9 
5.88e-07 11.279 -0.0396736 1.62271e-10 102120 101970 102212 -373.186 -2965.59 -14487.6 41486 
5.96e-07 11.4477 -0.00731116 3.27382e-10 102102 102006 102108 -409.974 20605.4 -6563.65 54428.4 
6.04e-07 11.545 0.0378032 2.92505e-10 102060 101995 102121 -386.446 36845.2 -6263.78 46244.8 
6.12e-07 11.811 0.0200008 3.70638e-10 102060 101923 102147 -399.205 25729.4 -3758.82 9864.82 
6.2e-07 11.7766 -0.0277416 -1.47204e-10 102073 101948 102212 -359.532 39640.7 -15302.6 40523.8 
6.28e-07 11.6466 0.0487362 -1.35557e-10 102045 102018 102062 -394.231 56684.4 -9058.82 -7711.22 
6.36e-07 11.7916 -0.0558337 1.4731e-10 102002 101963 102014 -360.605 12557.8 -9606.55 68916.4 
6.44e-07 12.1275 0.0264905 2.3304e-10 101929 101972 101954 -419.72 6924.44 -1438.36 47617.8 
6.52e-07 12.1097 -0.0224612 2.92118e-10 102141 101997 102079 -362.224 39224 -20865.3 41917.2 
6.6e-07 12.3845 0.0323666 2.62103e-10 102012 101941 102155 -385.35 36668.5 4814.65 28072.2 
6.68e-07 12.3504 -0.012359 -1.72609e-10 102082 101986 102163 -396.191 2892.73 -11768.3 34190.3 
6.76e-07 12.5747 0.0290113 1.03728e-10 102108 101951 101950 -367.621 38025.5 -3900.63 12035.4 
6.84e-07 12.7337 -0.0219495 -5.48976e-11 102037 101972 101965 -393.442 10736.7 -17160.5 18486.3 
6.92e-07 12.7058 0.0309089 -2.56064e-11 102161 101986 102132 -380.103 6291.5 -5107.74 -39338 
7e-07 13.0602 -0.0220317 -1.64072e-10 102039 101952 102038 -372.559 18297.8 -11155.9 -5805.13 
7.08e-07 13.2486 0.00808561 1.45545e-10 101995 101967 102188 -381.065 13923.7 2381.14 -20124.4 
7.16e-07 13.4449 -0.0157634 3.23998e-10 102063 102002 102105 -396.287 -7765.64 -12719.9 -17007.6 
7.24e-07 13.5102 0.0371322 -1.37367e-10 102036 101974 102111 -363.587 17666.7 -6355.84 -31009.1 
7.32e-07 13.5122 0.00658403 3.77881e-10 102035 101939 102151 -380.959 25569.4 -8736.08 -18301.7 
7.4e-07 13.9519 -0.0198831 7.84629e-11 101928 101975 102102 -370.66 -41674.6 -6427.96 -7672.21 
7.48e-07 14.2843 0.0232583 1.12997e-10 102011 101964 102068 -382.642 -59429.8 5133.93 -50227 
7.56e-07 14.3557 -0.0240225 1.64746e-11 101932 102009 101951 -371.656 -37581.2 -16249.3 -14150.3 
7.64e-07 14.2974 0.0344766 -3.48003e-11 101934 101952 102011 -381.905 -41903 -8084.52 -14390.3 
7.72e-07 14.228 0.00310382 -1.31808e-10 102047 101977 102058 -410.209 15328.8 -3656.49 -51965.6 
7.8e-07 14.5267 -0.023881 1.32144e-10 102109 101976 101996 -371.325 14618.9 -15496.8 -72463.1 
7.88e-07 14.4751 -0.00741223 1.91286e-10 102006 101962 102107 -374.621 29481.5 -4618.98 -71370.7 
7.96e-07 14.4674 0.0381731 -8.6808e-11 101910 101991 101969 -388.491 20257.1 -607.645 -37255 
8.04e-07 14.7948 0.0250857 2.966e-10 101972 101954 102107 -369.358 10758.6 -14083.5 -47930.4 
8.12e-07 15.0572 -0.0862379 2.55244e-10 101980 101996 102039 -390.541 12891.9 -1567.66 -34498 
8.2e-07 15.1852 0.0642077 4.50676e-10 101915 102002 101897 -381.023 16303.2 11862 -45521.9 
8.28e-07 15.2188 -0.0313882 1.35188e-10 101907 101959 101883 -372.783 23123.6 -28641.7 -28401 
8.36e-07 15.4897 0.0281504 -9.67529e-11 101866 101969 101890 -383.018 26174.5 -3689.86 -41642.9 
8.44e-07 15.5382 0.00507134 1.87306e-10 101821 101934 101896 -363.245 19392.6 -789.21 -49472.8 
8.52e-07 15.9426 -0.0425563 -5.82536e-11 101865 102024 101830 -379.014 8372.86 -18856.8 -38784.4 
8.6e-07 16.149 0.0427376 -4.75078e-11 101846 101918 101829 -390.843 -12343.4 3463.78 -28295 
8.68e-07 16.218 0.00482596 -4.36785e-11 102032 101974 101828 -387.647 -32150.3 -14475.3 -23265 
8.76e-07 16.2552 0.0112422 2.92615e-10 101986 102012 101917 -381.406 -17013.2 8448.41 2922.8 
8.84e-07 16.3711 -0.0519554 1.10643e-10 102091 101973 101897 -383.807 -32647.2 -10745 -14885.2 
8.92e-07 16.4919 0.0122722 2.12049e-10 102071 101960 102052 -380.75 -16024.1 -12569 -17521.8 
9e-07 16.6347 -0.00669478 -6.11943e-11 101963 101957 101966 -361.269 5294.5 -5659.59 8810.78 
9.08e-07 17.1441 0.0453448 1.12062e-10 102012 101986 101955 -402.931 -4822.45 -2142.48 8711.02 
9.16e-07 16.9572 -0.00652849 3.70844e-10 102013 101977 101845 -381.738 9199.99 -7657.56 3137.5 
9.24e-07 17.613 -0.0307242 1.9473e-10 101888 101975 101867 -372.445 -12068.4 -5952.8 17015.7 
9.32e-07 17.5287 -0.00169876 5.82819e-11 101873 101968 101884 -376.057 8803.72 -4701.23 2570.02 
9.4e-07 17.4067 0.0204919 2.98261e-12 102080 102022 102019 -390.359 -12299.5 -3872.33 -11599.1 
9.48e-07 17.8158 0.00141553 1.79866e-10 101984 101962 101992 -395.166 15966.3 -16535.4 -29158.2 
9.56e-07 17.9159 0.0117559 4.21033e-11 101981 101940 101918 -366.023 122.281 1102.32 2552.45 
9.64e-07 18.0112 -6.2366e-05 8.82192e-11 102001 101974 101957 -391.915 -2525.62 -7739.62 -4617.56 
9.72e-07 17.9853 0.0214588 -3.14887e-11 101975 101971 102070 -361.659 -6380.22 -10182.2 -1433.08 
9.8e-07 18.2844 -0.0368293 3.92963e-10 102003 102004 102147 -382.427 9419.16 -1760.58 1212.22 
9.88e-07 18.472 0.0549504 3.726e-10 101995 101957 102008 -391.85 -6857.13 938.645 -926.985 
9.96e-07 18.5598 -0.0312799 2.3834e-10 102055 102016 101943 -396.456 -7921 -16117.2 21940.4 
