ITEM: TIMESTEP
500000
ITEM: NUMBER OF CELLS
125
ITEM: BOX BOUNDS pp ss pp
0 0.0001
0 1e-06
0 0.0001
ITEM: CELLS yc f_vel[1] f_vel[2] f_vel[3] f_mom[1] f_mom[2] f_mom[3] f_mom[4] f_q[1] f_q[2] f_q[3] 
4e-09 1.25129 -0.603049 6.9282e-11 103745 102733 103653 -442.189 28539.4 77617.9 4556.42 
1.2e-08 1.55115 -0.0414554 -2.96927e-10 103199 102907 103160 -369.65 1521.93 18233.2 27849.8 
2e-08 2.2295 -0.0212418 -1.1826e-10 103136 102840 103074 -430.522 682.024 9570.45 35523.4 
2.8e-08 1.9775 0.00411889 1.52965e-10 103013 102895 102994 -445.33 32368.9 -1528 27924.4 
3.6e-08 2.37441 0.0169102 1.37026e-10 102974 102869 102935 -400.621 48020.8 -10761.2 43115 
4.4e-08 2.35209 0.00152236 3.01867e-10 102780 102879 102721 -406.104 38668.4 608.843 56312.9 
5.2e-08 2.56959 -0.013101 2.06768e-10 102845 102857 102931 -459.513 8696.97 -25222.6 23873 
6e-08 2.88594 0.0509348 2.2683e-10 102666 102831 102798 -403.284 3822.76 1668.74 19040.2 
6.8e-08 3.11524 -0.0403603 2.63573e-10 102883 102868 102718 -413.834 11793.6 -2863.41 -5572.09 
7.6e-08 3.27305 0.0123192 -6.26344e-12 102817 102909 102840 -399.662 -55585.1 -7974.68 63667.1 
8.4e-08 3.26648 -0.0467424 9.3505e-11 102607 102864 102574 -410.357 -11886.7 3601.74 4680.62 
9.2e-08 3.31205 -0.0195519 -6.36985e-11 102608 102853 102643 -424.608 5818.14 1058.78 16866.5 
1e-07 3.6505 -0.0871355 2.72225e-10 102716 102831 102725 -380.63 -30999.3 -10475.2 15337.4 
1.08e-07 3.87989 0.0204233 -2.01324e-10 102752 102906 102754 -425.96 3747.95 2418.39 -12207 
1.16e-07 4.0128 0.00649433 6.23588e-11 102562 102905 102716 -428.743 -17903.3 -16042 49650.2 
1.24e-07 3.89972 -0.00403855 3.06285e-10 102621 102817 102703 -426.435 -7462.7 -12372.6 22045.8 
1.32e-07 3.8645 -0.0294606 5.15312e-12 102756 102876 102817 -419.943 4412.92 1573.39 -7396.73 
1.4e-07 3.98526 -0.0457589 4.21126e-10 102796 102905 102846 -422.52 5926.45 -7117.73 -4241.56 
1.48e-07 4.64791 -0.0700617 -5.2731e-11 102524 102835 102671 -428.88 -25919.3 -13896.3 -8266.93 
1.56e-07 4.51621 -0.00174048 1.24655e-10 102517 102895 102658 -422.917 4409.41 5730.72 -24162.9 
1.64e-07 4.62389 -0.0250126 -1.12038e-10 102574 102897 102737 -412.093 15369.9 -10134.6 23520.5 
1.72e-07 4.98543 0.0600835 -1.57044e-10 102719 102869 102587 -425.238 -15636.8 -15015.1 580.446 
1.8e-07 5.20568 -0.0823154 3.80686e-10 102646 102843 102578 -437.423 -754.631 3100.56 -14040.6 
1.88e-07 5.2265 0.00899973 -1.75423e-10 102642 102911 102657 -389.876 3084.43 -6522.66 17365.5 
1.96e-07 5.29001 -0.077832 -1.46709e-10 102680 102848 102549 -446.832 -5934.04 -9067.2 25740.3 
2.04e-07 5.56473 0.0666814 5.7329e-10 102634 102878 102633 -396.98 -46936 -15421.2 25973.4 
2.12e-07 5.85196 0.0375373 -2.43353e-11 102684 102814 102714 -414.743 -1192.53 -7265.87 19571.1 
2.2e-07 5.92304 0.0383772 3.80315e-11 102783 102910 102633 -399.282 -18200 -5124.98 29561.2 
2.28e-07 5.93002 0.00756952 -1.38742e-10 102824 102880 102964 -441.049 16435.7 -6457.45 36048.1 
2.36e-07 5.99779 -0.0257089 1.79993e-10 102658 102863 102659 -455.275 22355.2 2251.43 46079.4 
2.44e-07 6.28848 -0.0282917 1.66899e-10 102725 102844 102794 -408.759 -25022.6 -10030.3 -19498.7 
2.52e-07 6.41822 -0.0370739 -1.39487e-10 102795 102875 102721 -405.064 -23568.4 -9393.3 2754.76 
2.6e-07 6.75688 0.0281713 1.83602e-10 102655 102843 102713 -430.193 -9184.83 -11742 -1372.09 
2.68e-07 6.87414 0.0391713 6.91274e-11 102560 102932 102614 -419.295 -58097.1 -7909.59 74917.1 
2.76e-07 6.72388 0.00762922 -2.50765e-10 102866 102849 102699 -410.345 -2486.73 -12455.4 32639.1 
2.84e-07 6.79434 -0.0625074 2.30589e-10 102830 102911 102719 -411.743 -15154 -6386.18 52967.5 
2.92e-07 6.79285 0.0400629 3.50246e-10 102587 102840 102699 -425.065 12388.3 -5707.6 26485.7 
3e-07 7.29942 0.0411843 1.36712e-10 102630 102919 102701 -414.35 11423.8 -11632.5 10989.7 
3.08e-07 7.518 -0.0576039 1.72597e-10 102577 102827 102668 -385.835 -24982.4 1551.64 16778 
3.16e-07 7.47947 -0.0717272 -7.39847e-11 102622 102884 102688 -437.409 -46.915 3011.94 -36314.5 
3.24e-07 7.86476 -0.0042367 1.02295e-10 102663 102842 102600 -420.532 -13675.5 -14299.5 -8445.06 
3.32e-07 7.84962 0.0969644 8.88675e-11 102726 102847 102786 -414.788 -46172.7 -3910.89 -5912.1 
3.4e-07 7.78591 -0.0415737 -3.30814e-10 102673 102902 102741 -414.392 -8204.26 -15054.5 -128.951 
3.48e-07 7.97918 -0.0419342 -3.60632e-10 102647 102823 102547 -424.989 -6536.81 1391.08 46694.8 
3.56e-07 8.20575 0.125386 -6.56977e-10 102702 102906 102709 -408.002 18850.9 -10800.7 3543.97 
3.64e-07 8.32209 -0.0270972 -8.86951e-11 102780 102837 102555 -390.338 24545.6 -6778.87 23452.7 
3.72e-07 8.20305 0.0442727 2.07597e-11 102845 102866 102822 -413.838 11546.1 -20249.1 5834.62 
3.8e-07 8.68507 0.0374066 2.99277e-10 102863 102822 102704 -410.874 -14136.3 -7770.42 19522.6 
3.88e-07 8.65405 0.0118097 1.21106e-10 102849 102999 102580 -418.183 15346.1 -15284.1 -28084.5 
3.96e-07 8.89913 -0.022666 3.97503e-10 102863 102781 102602 -446.393 28639 -7439.05 -16710.4 
4.04e-07 8.90782 -0.0551109 3.24993e-10 102758 102891 102745 -411.847 7933.66 -2323.16 -35695.9 
4.12e-07 8.94612 0.0623196 -2.39653e-10 102615 102823 102495 -439.614 1875.59 -488.277 -22222.3 
4.2e-07 8.93713 0.0527113 3.02079e-10 102626 102882 102551 -434.248 11730.2 -10613.6 -4600.26 
4.28e-07 9.48256 -0.0830625 6.55163e-10 102649 102864 102551 -408.607 -52094 -1357.23 7185.01 
4.36e-07 9.71462 -0.0417638 5.18934e-10 102646 102918 102545 -437.025 -38612.4 -378.477 -5356.98 
4.44e-07 9.66302 -0.06889 -2.24696e-10 102693 102874 102696 -393.434 -44982 -5857.63 -2352.03 
4.52e-07 9.66894 0.0080886 5.43055e-11 102658 102892 102638 -432.971 1698.09 -11098.4 -24645.1 
4.6e-07 9.77239 0.048864 6.0516e-10 102590 102900 102582 -406.736 -7800.64 -12509.9 -44610 
4.68e-07 9.88839 0.0560135 2.2503e-10 102659 102819 102493 -431.937 -17292.1 -1732.68 -6281.59 
4.76e-07 9.87155 -0.00969711 4.43697e-10 102804 102890 102728 -399.176 22029.4 -11746.6 -11313.6 
4.84e-07 10.0458 -0.016836 1.40048e-10 102793 102885 102760 -403.191 18006 -8532.73 -12963.5 
4.92e-07 10.4851 -0.0421558 2.11758e-11 102742 102847 102881 -407.765 -14206.7 4682.67 10444 
5e-07 10.3994 -0.0696368 -4.4128e-11 102772 102847 102773 -442.871 38703 -12999.8 22031.1 
5.08e-07 10.4463 -0.0136312 2.92996e-10 102715 102883 102829 -401.533 45005.2 3348.98 -17187.8 
5.16e-07 10.8983 0.125092 5.56162e-10 102667 102883 102950 -427.377 -8179.19 -21989.1 10433 
5.24e-07 11.1749 -0.00917472 -1.35539e-10 102581 102853 102617 -426.077 -19470.3 -3635.12 28718.5 
5.32e-07 11.1407 -0.0431544 1.63824e-10 102632 102898 102733 -408.571 13240 -3456.36 11446.7 
5.4e-07 11.2086 0.0696051 1.88995e-10 102646 102814 102782 -424.481 20430.2 -12930 -46944.2 
5.48e-07 11.2095 -0.0668435 -2.24832e-10 102739 102899 102763 -407.451 -15857 -9905.26 -7743.26 
5.56e-07 11.3871 0.0448661 -1.4622e-10 102761 102823 102660 -428.15 -22053.2 269.071 15731 
5.64e-07 11.5127 -0.00408408 -2.4765e-10 102698 102864 102653 -405.254 -14447.4 -12238.7 -2351.08 
5.72e-07 11.4819 -0.028298 8.40867e-12 102561 102888 102518 -384.37 24559.1 3936.42 11985.7 
5.8e-07 11.3142 -0.0219606 4.46543e-10 102634 102857 102553 -464.096 61785.8 -11498 47644.5 
5.88e-07 11.9546 0.00734902 3.55847e-10 102647 102852 102602 -401.277 8948.44 -575.06 44931.4 
5.96e-07 12.0027 -0.0317699 -9.15532e-11 102709 102916 102785 -408.582 5610.12 5892.24 17634.3 
6.04e-07 12.0469 -0.0242891 1.49665e-10 102660 102835 102651 -445.699 23967.9 -9494.74 4994.21 
6.12e-07 12.6761 -0.06083 7.24054e-11 102749 102916 102578 -442.041 -19538 -5235.79 4136.54 
6.2e-07 12.8336 -0.0290369 4.32755e-10 102821 102842 102619 -401.857 -28903.2 -11521 23199.2 
6.28e-07 13.005 0.0591022 4.8467e-11 102859 102845 102812 -406.734 -10434.3 -9461.19 27242.4 
6.36e-07 12.7379 0.0303204 -1.6384e-10 102677 102892 102682 -433.313 9935.22 -10303.1 52248.1 
6.44e-07 13.0381 -0.00644199 -1.20066e-10 102713 102873 102726 -417.271 -24099.2 -2027.33 -11921.5 
6.52e-07 12.8834 0.0479921 1.9302e-11 102806 102879 102697 -403.192 -282.845 -17724.3 -5748.81 
6.6e-07 12.9613 -0.015691 -9.87176e-11 102775 102860 102806 -417.565 22295.7 1182.45 -12817.7 
6.68e-07 12.9574 -0.071773 -3.75299e-10 102706 102825 102686 -413.823 16400.6 -12615.6 16581.2 
6.76e-07 13.2862 0.0404726 -3.28971e-10 102661 102878 102620 -447.485 -4198.5 -1991.6 22416.9 
6.84e-07 13.4856 0.0482133 -1.24305e-10 102856 102856 102718 -382.359 18795.6 -5315.9 -41438.2 
6.92e-07 13.6084 -0.0606417 1.62021e-11 102674 102896 102470 -436.899 -16910.2 -4763.86 7904.39 
7e-07 13.93 -0.0195329 -4.61053e-11 102564 102835 102565 -413.547 -41172.9 -11164.9 1009.57 
7.08e-07 13.9366 0.0842236 -2.36939e-10 102695 102893 102661 -411.918 -14571.2 -7366.93 25015.2 
7.16e-07 13.9057 0.00771766 4.4633e-11 102875 102814 102750 -422.469 -878.18 -13901 16316.4 
7.24e-07 14.1427 0.00967848 2.09557e-10 102791 102898 102693 -410.928 23644.2 2077.99 7871.03 
7.32e-07 14.1366 -0.0038119 -2.37046e-10 102518 102848 102635 -403.956 11258.9 -8807.88 -10887.4 
7.4e-07 14.3557 0.0874821 2.13357e-10 102812 102900 102692 -418.562 26893.7 -7010.11 -8631.69 
7.48e-07 14.8192 -0.0598972 -1.04622e-10 102866 102855 102724 -411.215 -4696.33 -12098.9 -9677.35 
7.56e-07 14.8087 0.0492017 1.68456e-10 102805 102908 102714 -423.792 -5122.55 -9942.25 15435.5 
7.64e-07 15.1215 0.0484638 -1.61965e-10 102525 102881 102698 -397.301 -19147.1 2360.73 -6542.93 
7.72e-07 14.9286 -0.0530841 -2.72512e-11 102703 102887 102584 -388.809 -21299.8 -7741.26 -3679.97 
7.8e-07 15.0954 0.0324368 -7.85576e-11 102537 102842 102637 -422.619 12824.8 -8386.22 12930.3 
7.88e-07 15.3981 -0.0835315 -3.55016e-11 102684 102818 102625 -415.365 -10036.9 2146.47 21447.2 
7.96e-07 15.6913 0.00510907 2.82621e-10 102894 102883 102696 -421.587 -32463.2 -9492.75 11301.1 
8.04e-07 15.6784 0.000210676 -3.64997e-11 102793 102884 102642 -409.993 -26455.8 -2531.81 384.932 
8.12e-07 15.9391 0.0112069 1.12594e-10 102696 102841 102723 -415.71 -29810.5 -12607.8 5087.44 
8.2e-07 16.0353 -0.0232302 3.18779e-10 102840 102902 102982 -446.525 -31959.4 -2679.56 17013 
8.28e-07 16.0171 0.0657593 3.17871e-11 102816 102794 102860 -450.106 -55619.6 -2899.32 -6516.24 
8.36e-07 16.1319 -0.0183034 3.02608e-10 102852 102955 102891 -396.594 -16873.1 -6631.69 -36743.9 
8.44e-07 16.6592 -0.0356606 4.68832e-10 102888 102818 102670 -466.682 -10802.8 -6647.57 -45965.1 
8.52e-07 16.6419 0.102949 -1.04533e-10 102987 102888 102793 -380.792 -18222.7 828.802 -19241.3 
8.6e-07 16.8542 -0.0630112 2.76364e-10 102894 102875 102947 -434.874 -30448.8 -10250.9 11316.5 
8.68e-07 17.114 -0.00247912 -1.11467e-10 102810 102850 102803 -434.641 5339.16 5690.33 -6638.33 
8.76e-07 17.2045 0.0111732 1.4429e-10 102679 102845 102724 -405.805 -31032.8 -3901.81 29297.8 
8.84e-07 17.3449 -0.000737181 2.14522e-10 102672 102907 102642 -434.956 -49161.2 -9927.53 1383.96 
8.92e-07 17.5427 -0.013641 -3.54391e-10 102804 102899 102716 -403.88 -26468.5 4235.93 23574.4 
9e-07 17.5065 0.030494 1.22264e-10 102667 102857 102621 -430.596 -9952.68 -16883.9 9302.03 
9.08e-07 17.5902 0.0137284 -1.40089e-10 102618 102855 102775 -424.377 19243 -1295.84 1530.78 
9.16e-07 18.156 -0.0360425 -2.96347e-10 102603 102910 102677 -398.486 -35395.3 -3827.31 3958.62 
9.24e-07 17.9915 -0.0363099 1.35804e-10 102656 102810 102710 -408.454 -13439.8 -1272.14 -32437 
9.32e-07 18.1528 0.0276969 -1.60288e-10 102629 102948 102928 -398.23 -61462.8 -15476.7 -5986.64 
9.4e-07 18.4631 0.0478096 2.59675e-11 102779 102817 102893 -407.922 -26312.2 -10863.5 16315.2 
9.48e-07 18.2988 0.068079 2.50867e-11 102651 102864 102917 -423.197 -23759.1 -9965.79 -12458.4 
9.56e-07 18.7885 -0.0375766 1.88151e-10 102753 102902 102894 -402.757 -50445.7 -6143.3 22844.9 
9.64e-07 18.4075 0.0956237 -2.48979e-10 102877 102907 102814 -430.845 -11428.6 -21268.1 24469.7 
9.72e-07 18.7585 -0.0212817 3.12391e-10 103001 102853 102837 -400.531 -55764.5 -19857.8 35343.6 
9.8e-07 18.8008 0.00757129 -2.20033e-10 102818 102893 102861 -437.806 -29109.9 -4580.08 19459.5 
9.88e-07 19.1823 0.0893425 1.26251e-10 103326 102910 103388 -398.401 -23397.5 -48947.9 -11375.6 
9.96e-07 19.2966 0.587763 -8.71794e-11 103871 102727 103841 -396.28 -24008.6 -114754 -2707.28 
