ITEM: TIMESTEP
500000
ITEM: NUMBER OF CELLS
125
ITEM: BOX BOUNDS pp ss pp
0 1e-06
0 1e-06
0 1e-06
ITEM: CELLS yc f_vel[1] f_vel[2] f_vel[3] f_mom[1] f_mom[2] f_mom[3] f_mom[4] f_q[1] f_q[2] f_q[3] 
4e-09 0.789031 -0.00480008 2.53789e-10 104879 102774 104994 -373.484 58602.3 14605.4 -17756.8 
1.2e-08 1.28934 0.0674471 3.35999e-10 103419 102747 103580 -408.509 16823.8 14395.4 -49810.1 
2e-08 1.68583 0.000171319 4.77749e-11 103347 102740 103333 -396.974 17563.7 13573.8 -1772.93 
2.8e-08 1.90699 -0.0402103 1.25807e-10 103421 102681 103143 -398.608 -46972.1 -8508.75 -39213.5 
3.6e-08 1.82993 0.0223773 1.31762e-10 103022 102757 103056 -385.802 -5597.65 16546.1 -9302.96 
4.4e-08 1.98575 -0.0655975 6.73256e-11 102910 102673 102815 -355.199 1834.82 -9702.7 -36131.5 
5.2e-08 1.95524 0.0748996 3.47684e-10 102899 102760 102795 -395.938 39238.7 1741.89 -18655.2 
6e-08 2.41049 -0.0111266 -7.03447e-11 103093 102685 102906 -426.406 10652.1 761.903 -5469.58 
6.8e-08 2.65365 -0.0215579 1.32912e-10 103039 102699 102971 -378.38 5105.43 217.185 -8556.66 
7.6e-08 2.6203 0.0608028 -1.15088e-10 102828 102703 102944 -394.44 -12972 3079.74 -4056.65 
8.4e-08 2.98493 -0.0413117 7.34263e-10 103009 102775 103109 -391.691 -15797.2 3544.16 6627.76 
9.2e-08 3.11591 -0.0101165 4.60245e-11 102783 102674 102834 -391.147 -13961.6 -1453.58 10507.9 
1e-07 3.01639 -0.0349053 2.96003e-10 102952 102733 103000 -388.222 19875.7 369.12 5713.1 
1.08e-07 3.05933 0.0198814 -2.29348e-10 102949 102664 102819 -387.133 17630 -3675.68 -13644.8 
1.16e-07 3.18587 0.00548835 4.15016e-10 102864 102748 102792 -368.594 39065.9 11206.7 -18219.6 
1.24e-07 3.58202 0.0234804 1.99637e-10 102844 102683 102952 -424.385 32813.6 -9036.39 -18981.1 
1.32e-07 3.77015 -0.0426151 -1.63108e-10 102825 102717 102949 -398.251 -399.773 -219.045 -6967.26 
1.4e-07 3.93112 0.0439255 -1.52097e-11 102876 102726 102929 -370.713 -30889.5 -1164.02 -9666.46 
1.48e-07 3.90247 -0.0160321 -2.43147e-10 102856 102709 102891 -400.041 -11355.6 11095.5 28419 
1.56e-07 3.90525 -0.0154675 5.23022e-10 102939 102648 102928 -396.001 48345.8 -6516.91 10649.6 
1.64e-07 4.24871 0.00629008 3.8849e-12 103010 102668 102966 -375.484 -12422.2 -3145.5 -22560.3 
1.72e-07 4.14402 -0.00337044 2.53676e-11 103006 102771 103079 -386.895 24562.5 7790.56 -37052.4 
1.8e-07 4.5891 0.0432052 1.34849e-10 102920 102695 102936 -397.268 31752.5 -4793.91 -47099 
1.88e-07 4.60367 -0.0209719 1.10873e-10 103070 102700 102986 -383.302 -8114.93 -4765.7 -37124.2 
1.96e-07 5.04161 -0.0363209 -2.85896e-10 102970 102699 103000 -403.719 -25743.5 -3788.44 -5201.67 
2.04e-07 5.04064 0.0340188 7.72479e-11 102999 102694 103004 -408.78 18530 4969.94 -17390.1 
2.12e-07 4.89675 0.0110171 1.98707e-10 102956 102662 103060 -377.526 17999.5 -10059.2 -22623.6 
2.2e-07 5.31432 -0.0265304 2.27907e-10 103026 102765 103153 -374.277 -9603.02 10732.3 -21163.1 
2.28e-07 5.46659 -0.0543425 6.36698e-11 102789 102727 102938 -398.261 2245.27 -9333.12 -20071.9 
2.36e-07 5.62266 0.0687295 2.57553e-10 103036 102721 102992 -423.025 -3111.69 10153.1 -13189.8 
2.44e-07 5.98076 -0.0132054 5.53105e-11 102821 102711 102885 -349.135 -32390.6 -7569.46 23285.5 
2.52e-07 5.93992 0.0334556 2.38911e-10 102687 102678 102860 -397.258 -17449 678.594 -33680.5 
2.6e-07 6.21719 -0.0167402 7.13404e-11 102951 102730 102903 -380.755 -37993.3 9013.22 11116.6 
2.68e-07 6.17997 -0.0229535 -1.51086e-10 102873 102709 102911 -391.168 -18350.1 -3340.83 29060.2 
2.76e-07 6.39284 0.0230508 -1.8714e-10 102813 102653 102897 -398.012 -35180.8 3847.37 24231.4 
2.84e-07 6.70097 -0.0477414 1.21223e-11 102904 102691 103000 -384.199 -34076.6 -9557.3 11541.4 
2.92e-07 6.62012 0.0732852 1.28208e-10 102905 102700 102947 -402.219 -11446.5 5451.29 22656.6 
3e-07 6.69279 -0.0242134 -1.40966e-10 102764 102713 103078 -408.137 4261.41 1256 4006.39 
3.08e-07 6.76985 0.0181075 1.78011e-10 102983 102730 103025 -379.804 6872.11 924.091 -5852.73 
3.16e-07 6.95688 -0.0105466 -2.54601e-10 102829 102676 102954 -377.657 12962.1 4183.93 -28585.9 
3.24e-07 6.83012 -0.0128457 1.88145e-10 102744 102709 102928 -410.396 -2012.95 1634.05 25513.2 
3.32e-07 7.12442 -0.00393153 -1.21654e-10 102885 102711 102892 -396.043 14350.3 -3518.58 31781.8 
3.4e-07 7.47703 0.0124675 -4.55302e-10 102965 102678 102994 -381.242 15596.1 -2432.85 -14063.6 
3.48e-07 7.74368 -0.0573283 -6.23988e-11 102939 102726 102916 -378.927 15727.4 7130.01 -12038.7 
3.56e-07 7.86628 -0.0169797 1.59475e-10 102822 102737 102980 -414.189 -5794.83 3223.03 15452.7 
3.64e-07 7.84248 0.018445 1.1244e-10 102889 102606 102904 -387.615 47730.8 -6551.09 19201 
3.72e-07 8.19552 0.0381059 1.38097e-10 102997 102706 103009 -384.802 36876.3 11830.4 -10570.4 
3.8e-07 8.2206 -0.0664813 4.00671e-10 103049 102757 103107 -435.474 -4877.99 -438.472 -12456.7 
3.88e-07 8.07449 0.0482085 -2.11242e-11 102955 102716 103100 -378.112 -13136.2 886.399 4679.7 
3.96e-07 8.37127 -0.0494423 3.15561e-10 102925 102657 103089 -388.323 11518.4 -4995.27 -19112.8 
4.04e-07 8.63004 0.0262926 3.50227e-11 103093 102745 102950 -397.483 -6102.43 14064.1 -3615.2 
4.12e-07 8.6695 -0.0106063 1.1523e-11 103044 102697 103070 -373.17 22049.5 -14027.9 12932.2 
4.2e-07 9.27344 0.0103338 1.9809e-10 103148 102716 102930 -409.487 2782.64 9864.47 -18212.2 
4.28e-07 9.36365 0.0246952 -1.21796e-10 102909 102676 102839 -404.717 -39902.2 6513.08 -33203.8 
4.36e-07 9.26688 -0.0622236 2.60601e-10 102872 102688 102756 -393.014 -5428.81 -7043.31 -33748.8 
4.44e-07 9.52952 0.0603484 2.73969e-10 102743 102715 102800 -401.684 29208.3 5061.78 13571 
4.52e-07 9.50101 -0.0610998 -1.93853e-10 102669 102703 102556 -393.441 14914.6 -1748.29 -43313 
4.6e-07 9.58542 0.0164516 1.27827e-10 102900 102704 102677 -369.304 43571.5 13890.3 -7642.16 
4.68e-07 9.64221 0.00308508 -5.78131e-11 102902 102673 102969 -411.626 -2088.14 -5093.98 10203.9 
4.76e-07 9.95574 0.00735 3.09359e-10 102959 102727 102985 -383.131 -11521.4 6858.17 -19024.6 
4.84e-07 9.91819 -0.0211177 -1.33567e-10 103079 102706 103072 -391.01 -4364.87 5940.79 -11992.7 
4.92e-07 10.2415 0.0203806 -2.37532e-10 103067 102694 103055 -410.845 -13026.8 -4940.06 -1505.07 
5e-07 10.4401 -0.0237809 -3.02303e-12 103150 102698 103093 -361.896 5927.78 10847.1 2021.83 
5.08e-07 10.3862 -0.0263283 3.74365e-10 103031 102703 102946 -374.316 42745 -3824.1 -25705.7 
5.16e-07 10.5946 0.0581772 1.86008e-10 103012 102739 103106 -399.993 40831.2 2476.96 -11583.2 
5.24e-07 10.749 -0.0510098 -3.93953e-10 102939 102701 102992 -410.812 25225.5 -6512.94 -14015 
5.32e-07 10.7912 0.0267991 7.07591e-11 102916 102687 103000 -388.275 7375.58 -32.1301 38025.3 
5.4e-07 11.095 0.0176872 2.28778e-10 102886 102680 103016 -397.522 3443.9 16211.6 39152.9 
5.48e-07 10.9861 -0.0461931 -3.99584e-10 102806 102742 102757 -406.107 9141.62 -10847.8 22514.1 
5.56e-07 11.1148 0.00234886 -1.56109e-10 102944 102718 103022 -353.882 -20045.3 13632.6 10097 
5.64e-07 11.2092 -0.00930947 -8.11607e-11 102865 102654 102842 -407.339 4393.37 -7153.95 -17026.6 
5.72e-07 11.454 0.00661532 5.21814e-11 102790 102734 102720 -360.541 -1393.67 -188.799 -20619.3 
5.8e-07 11.7057 0.0346239 2.99967e-10 103070 102685 103103 -383.078 -50984.8 4447.58 -6370.2 
5.88e-07 11.676 -0.0717438 -1.02774e-10 103003 102718 103128 -362.891 -14998.3 3870.09 30563.1 
5.96e-07 11.5485 0.0512784 3.71868e-11 102913 102708 103102 -407.396 -8834.56 -944.196 34490.9 
6.04e-07 11.9987 -0.0612623 6.48263e-11 102935 102683 103011 -401.56 5338.76 17369.2 23880.1 
6.12e-07 12.0105 0.0143124 -3.08842e-10 102863 102718 102972 -401.337 -11576.1 -906.748 15818.4 
6.2e-07 11.8794 -0.025051 -7.73234e-11 102788 102709 102832 -391.161 18376.8 4833.86 -28319.7 
6.28e-07 12.3946 0.0052774 2.37238e-10 102896 102698 102881 -391.91 33613.4 8473.68 2914.65 
6.36e-07 12.4243 -0.047088 2.28925e-10 102999 102681 102971 -414.225 28158.8 4317.21 26771.4 
6.44e-07 12.4681 0.0650967 -4.42542e-10 102973 102746 103003 -376.032 -3470.71 5052.11 43470.9 
6.52e-07 12.6626 -0.00653025 -1.08323e-10 102657 102683 102923 -364.464 -15654.1 -2886.42 14846.8 
6.6e-07 12.768 -0.00208862 2.5806e-10 102844 102691 102944 -409.436 5780.25 11378.7 -3989.93 
6.68e-07 12.9965 0.00323359 -9.52277e-12 102951 102719 102864 -396.485 -8644.52 5883.16 -18504 
6.76e-07 13.1497 -0.0398509 4.09887e-11 102839 102691 103000 -363.804 6765.61 1811.7 -49450.7 
6.84e-07 13.3602 0.00528591 -4.03834e-10 102917 102692 102907 -426.388 -41782.2 1853.03 -22660.8 
6.92e-07 13.4178 -0.00904359 2.23231e-10 102830 102728 102800 -351.062 -29119.8 -4520.53 -41645.6 
7e-07 13.7135 -0.0489591 2.89399e-10 102837 102694 102887 -408.323 -56176 5351.73 30555.6 
7.08e-07 13.6315 0.0316375 2.22161e-10 102863 102702 102984 -375.748 4015.78 7625.74 -25265 
7.16e-07 13.664 -0.0150487 2.81039e-11 102781 102714 102894 -388.531 32578.8 -850.651 119.228 
7.24e-07 13.861 0.0191756 -8.6745e-11 102774 102663 102830 -393.015 5464.85 -3894.24 15609.3 
7.32e-07 13.7636 0.0336565 1.18974e-10 102646 102727 102805 -395.252 23023.9 4805.66 47954.3 
7.4e-07 14.3386 -0.0572323 -1.65064e-10 102773 102706 102883 -407.791 28864.3 6104.93 7210.84 
7.48e-07 14.4003 0.018389 3.76908e-10 102885 102685 102840 -373.188 -16776.5 14.6327 3644.87 
7.56e-07 14.7233 0.0243604 4.94011e-11 102946 102713 102748 -395.94 -16781 -766.321 -21012.7 
7.64e-07 14.789 -0.0279946 1.37102e-10 102883 102711 102773 -377.562 -8776.02 3691.52 5021.69 
7.72e-07 14.9448 0.0498424 -1.04996e-10 103029 102696 102748 -389.419 -25259.8 1908.05 19552 
7.8e-07 15.105 -0.0110428 2.87922e-11 102841 102752 102774 -406.974 -9949.2 9324.29 -21001.8 
7.88e-07 15.3769 -0.0518379 2.09231e-10 102914 102694 102740 -394.332 -27037.3 -2125.42 -18086.7 
7.96e-07 15.3381 0.0347004 3.54938e-10 102960 102665 102808 -391.035 -18076.3 8897.2 -32318.1 
8.04e-07 15.5655 -0.00823207 -3.13103e-10 103009 102689 103004 -413.467 -32875.7 3393.33 -36806.9 
8.12e-07 15.8021 -0.0013622 4.46486e-10 103026 102746 103047 -378.078 -32702.6 7787.36 -19323.7 
8.2e-07 15.7311 0.0290211 -4.5406e-11 102950 102671 102989 -384.147 4464.61 -1092.77 -4178.49 
8.28e-07 15.8688 -0.035021 -3.38024e-10 103200 102695 103009 -417.456 7134.36 18505.7 -10573.2 
8.36e-07 15.9376 -0.027039 1.73148e-10 102855 102742 102695 -363.89 13496.7 -5275.27 28479.8 
8.44e-07 16.194 0.0082814 2.37558e-10 102912 102688 102842 -395.465 -3957.77 13026.5 -6149.45 
8.52e-07 16.3896 0.00863467 3.04948e-10 103016 102693 103006 -405.902 -9124.85 -679.88 16307.7 
8.6e-07 16.2526 -0.0123774 1.78498e-10 103005 102718 102929 -359.518 21152.7 16522.4 -25699.5 
8.68e-07 16.6824 -0.0282542 1.59979e-10 102922 102674 102882 -407.593 10054.6 640.796 -23513.9 
8.76e-07 16.8582 0.0658515 4.31017e-10 103046 102698 102928 -406.463 -23176 -1775.41 -47771.8 
8.84e-07 17.4006 0.00198009 5.56225e-10 102921 102779 102794 -369.98 -18577.9 -922.762 -7872.11 
8.92e-07 17.1425 -0.000386959 -3.03539e-10 102822 102654 102892 -411.279 -11873.9 18010.2 -31555 
9e-07 17.1068 -0.0873974 -9.22129e-11 102919 102681 103011 -404.837 -6469.52 -3610.38 -53042.9 
9.08e-07 17.5923 -0.00821203 3.37465e-10 102866 102720 102924 -379.061 4451.16 4705.15 -3724.19 
9.16e-07 17.6291 0.126435 6.19639e-11 103010 102705 103001 -372.549 -26388 15208.5 -1586.47 
9.24e-07 17.6038 -0.097501 3.10947e-10 103011 102709 102873 -398.301 -29480.4 2062.27 -8639.02 
9.32e-07 17.636 0.0773798 8.50187e-12 103188 102750 102989 -387.732 -721.694 9565.71 -6702.44 
9.4e-07 17.9785 -0.0991815 -2.50742e-10 103111 102629 103115 -379.675 13247.7 -16770.3 23030.6 
9.48e-07 18.0648 0.0565619 2.21433e-10 103140 102739 103032 -425.198 18735 12317.2 35866.3 
9.56e-07 18.1098 -0.02824 -1.33187e-10 103244 102717 102955 -366.634 33259.4 -3800.16 -21211.5 
9.64e-07 18.4338 0.0111509 4.53264e-11 103159 102706 103012 -383.44 -27349.6 6886.2 -25391.6 
9.72e-07 18.2591 0.0344439 3.03328e-10 103268 102761 103191 -397.852 19968.1 -8869.63 -10699.8 
9.8e-07 18.3226 0.0234629 1.63822e-10 103427 102669 103518 -367.996 -38564.8 1509.7 -3987.45 
9.88e-07 18.581 -0.0304593 2.78166e-10 103768 102772 103585 -384.202 -7654.1 -11788 3948.16 
9.96e-07 18.8215 -0.053126 6.52867e-11 105029 102759 104954 -416.337 -25604.5 -21550.4 17204.7 
