ITEM: TIMESTEP
500000
ITEM: NUMBER OF CELLS
125
ITEM: BOX BOUNDS pp ss pp
0 1e-06
0 1e-06
0 1e-06
ITEM: CELLS yc f_vel[1] f_vel[2] f_vel[3] f_mom[1] f_mom[2] f_mom[3] f_mom[4] f_q[1] f_q[2] f_q[3] 
4e-09 1.19859 -0.0259341 3.71959e-10 104421 102588 104459 -382.035 23998.1 13733.4 62278.8 
1.2e-08 1.63617 -0.00507229 -1.91166e-10 103128 102577 103002 -364.782 35799.9 16134.4 11271.8 
2e-08 1.77085 -0.00423334 -2.32841e-10 103146 102590 103143 -411.054 -13798.7 5278.83 7345.15 
2.8e-08 1.96145 0.0206234 -1.05046e-10 102978 102515 102968 -398.244 23233 -13865.2 6654.21 
3.6e-08 2.07451 0.0262066 -2.33362e-10 103014 102638 102805 -353.297 -2948.92 8288.32 -7564.45 
4.4e-08 2.09025 0.0186372 6.96815e-11 102800 102531 102879 -382.412 24029.2 -5671.33 31341.4 
5.2e-08 2.2272 0.0158561 -3.3368e-11 102836 102544 102943 -383.942 -1774.5 19404.4 18997.2 
6e-08 2.5378 -0.033579 3.42195e-12 102897 102580 102893 -373.043 2134.09 -4895.66 36727.1 
6.8e-08 2.52442 -0.00748672 6.31863e-11 102860 102567 102753 -419.603 28267.5 -5061.26 -24664.3 
7.6e-08 2.72776 0.0438539 9.70518e-11 102765 102575 102896 -364.055 17237.2 10342.7 -22.9091 
8.4e-08 2.93821 -0.108331 5.607e-10 102806 102514 102867 -398.156 -2384.75 -13283.3 7624.38 
9.2e-08 3.09211 0.0612763 -1.82497e-10 102988 102601 102884 -432.343 -3525.16 5051.09 2600.05 
1e-07 2.94393 -0.0143669 2.70378e-11 103011 102496 102752 -353.617 15358.9 4813.58 18725.9 
1.08e-07 3.11254 0.042534 -2.14795e-10 102946 102596 102698 -383.848 8968.02 4103.49 10572.1 
1.16e-07 3.24731 -0.0151861 -1.0828e-10 102880 102580 102772 -381.793 57201.1 -5014.65 13514 
1.24e-07 3.51014 -0.055352 -3.35142e-11 102840 102568 102848 -398.141 -13959.4 -7920.47 18901.2 
1.32e-07 3.89862 0.024083 -3.72923e-10 102923 102530 102865 -376.279 -6041.12 5804.39 -9955.06 
1.4e-07 3.87877 0.0090352 3.83864e-10 102708 102570 102925 -394.955 24475 2328.42 -11593.1 
1.48e-07 4.05187 0.00481098 2.77423e-11 102764 102590 102898 -409.665 15619.3 -21108.7 -62094.2 
1.56e-07 4.38623 -0.0227984 2.92147e-10 102841 102559 102856 -378.134 9453.78 16103.3 -28547.8 
1.64e-07 4.16543 -0.00544468 -4.13797e-11 102589 102502 102525 -373.863 3127.72 -8808.53 17345.7 
1.72e-07 4.68873 -0.00220416 1.72556e-10 102724 102626 102801 -387.123 -22431.2 3417.62 2005.56 
1.8e-07 4.73172 0.0512175 -1.83946e-10 102694 102487 102610 -368.718 -17990.9 -9347.89 -36646.3 
1.88e-07 4.87563 -0.0479437 1.10967e-10 102605 102529 102651 -416.319 3002.09 5264.98 12462.8 
1.96e-07 4.94691 0.0130031 -7.59949e-11 102521 102630 102782 -381.486 -10629.6 -11822.7 18180 
2.04e-07 4.92066 -0.0138666 -1.31075e-10 102620 102497 102586 -402.36 14552.9 1357.79 -46510.8 
2.12e-07 5.24714 -0.00622617 2.60161e-10 102717 102601 102614 -394.321 -10230.7 3018.19 -23344.9 
2.2e-07 5.39098 0.0472301 2.85452e-11 102674 102498 102582 -389.377 2350.69 374.803 8442.46 
2.28e-07 5.36184 -0.0833431 -2.59581e-11 102773 102582 102677 -374.456 16676.2 -429.882 -194.278 
2.36e-07 5.68875 0.0613368 3.98608e-10 102740 102542 102748 -363.331 -13270 -582.371 -5187.68 
2.44e-07 5.88718 -0.0177943 -1.4825e-11 102919 102517 102788 -413.024 -7130.4 -3784.81 -29714.1 
2.52e-07 5.95425 0.038292 -2.51122e-10 102722 102599 102711 -383.794 11245 -7869.74 5763.08 
2.6e-07 6.13523 -0.00369401 -6.27787e-10 102818 102530 102672 -392.308 -26566.4 -2903.53 5259.06 
2.68e-07 6.11205 -0.00606889 2.49222e-10 102692 102563 102490 -380.191 14849.1 5369.27 18472 
2.76e-07 6.41384 -0.0342184 -6.13081e-10 102624 102527 102535 -375.118 -26637.4 -2254.63 -22125.2 
2.84e-07 6.32604 0.00462171 2.43228e-10 102708 102580 102753 -395.467 -17031.3 6640.54 -21325.9 
2.92e-07 6.62602 -0.00505001 3.03371e-10 102742 102556 102610 -394.119 -5842.45 -4081.5 -5010.71 
3e-07 6.97128 0.00379762 1.50432e-10 102572 102543 102448 -361.013 -57928.2 789.047 9986.11 
3.08e-07 7.11231 -0.00194168 1.69325e-11 102613 102540 102562 -396.231 -36400.5 -380.607 1932.05 
3.16e-07 6.94637 0.00193686 1.99367e-10 102702 102541 102694 -369.584 -5066.2 1319.93 36693.2 
3.24e-07 7.04186 -0.0343565 2.08382e-10 102855 102525 102833 -413.825 -25809.9 -8744.93 22584.1 
3.32e-07 7.52278 0.0742147 -2.18402e-10 102832 102570 102653 -383.062 -63945 7438.6 -5743.49 
3.4e-07 7.44397 0.0161758 -3.93507e-10 102772 102533 102934 -399.926 -13059.7 -10265.5 1976.39 
3.48e-07 7.44203 0.0289466 -4.95952e-11 102773 102550 102810 -373.188 -39679 8871.15 -11125.1 
3.56e-07 7.4526 -0.0932697 5.08359e-10 102837 102580 102603 -367.729 16910.9 -8539.17 -48498.1 
3.64e-07 7.65898 0.054861 1.16693e-11 102633 102556 102667 -435.532 -18325.2 10149.8 -1912.43 
3.72e-07 7.72155 0.00171656 1.86375e-10 102673 102545 102774 -363.832 -23794.1 -2267.58 -11748.9 
3.8e-07 7.7039 -0.020673 -6.76415e-11 102648 102548 102758 -378.64 -5377.56 1507.93 7297.29 
3.88e-07 8.29184 -0.0498435 -2.34441e-10 102684 102585 102780 -405.516 -30342.5 8496.18 12958.5 
3.96e-07 8.17567 -0.0038987 9.14134e-11 102720 102526 102736 -360.466 -6014.62 -8197.2 18944.8 
4.04e-07 8.58641 0.0749958 -1.46657e-10 102782 102551 102737 -416.36 15872.7 -915.342 16698 
4.12e-07 8.49296 0.00882486 2.74558e-10 102914 102562 102779 -366.635 -22655.8 -568.927 6431.12 
4.2e-07 9.01389 0.00104439 -2.55533e-10 102834 102535 102795 -383.922 -48126.7 -6364.02 -32978.1 
4.28e-07 8.84769 -0.0147224 4.23079e-11 102803 102560 102905 -382.203 2774.29 3446.92 -18169.8 
4.36e-07 8.60674 -0.0178186 3.22118e-10 102792 102553 102819 -391.277 45370.7 3902.47 27820 
4.44e-07 9.07397 0.0171343 1.0385e-10 102806 102572 102652 -398.362 -19451.1 -56.083 1962.18 
4.52e-07 9.29214 -0.0156676 1.32266e-11 102741 102513 102767 -389.636 -20772.2 -941.528 31041.9 
4.6e-07 9.31719 -0.0166539 1.14622e-10 102693 102551 102781 -374.81 -4694.73 -3986.59 -27033.8 
4.68e-07 9.54777 -0.00477612 -4.92109e-11 102718 102611 102852 -394.562 -44880.1 3234.55 -7792.13 
4.76e-07 9.67066 0.0315818 1.16699e-10 102730 102514 103001 -385.866 8091.84 -1128.79 2799.74 
4.84e-07 9.59894 0.0286085 5.44962e-10 102869 102565 102771 -397.438 20305.3 1514.18 32437.5 
4.92e-07 9.77798 0.00726268 2.20008e-10 102784 102605 102792 -412.591 8945.38 2072.46 -15479.5 
5e-07 9.8489 -0.0270883 -5.02738e-10 102693 102535 102731 -372.817 -8679.51 -10027.3 6382.29 
5.08e-07 10.0125 -0.0125867 -3.38925e-12 102724 102532 102724 -405.215 18996 4533.76 75000.2 
5.16e-07 10.0566 0.0252118 3.00876e-10 102725 102550 102674 -377.89 8486 414.126 25808.9 
5.24e-07 10.1785 -0.0371795 -6.64654e-11 102712 102503 102820 -357.609 26526.7 -3127.77 32396.7 
5.32e-07 10.435 0.0104373 -1.7181e-10 102773 102609 102635 -390.362 30733 1600.33 -1217.98 
5.4e-07 10.7796 0.0517791 -1.6858e-10 102779 102540 102858 -396.746 9151.35 1932.27 39800.9 
5.48e-07 10.8366 -0.0526156 1.23048e-10 102850 102524 102907 -385.753 3017 6901.41 30108.7 
5.56e-07 10.8209 -0.00226841 1.03326e-11 102722 102546 102613 -380.817 8083.34 -6522.36 27249.9 
5.64e-07 11.2397 0.0371004 -2.11007e-10 102824 102590 102847 -414.688 6900.65 9733.95 -14134 
5.72e-07 11.3996 -0.0193329 -2.46622e-10 102784 102547 102772 -393.398 14540.7 -6588.22 32535.7 
5.8e-07 11.3662 0.069844 -2.53407e-10 102798 102546 102607 -413.514 4249.2 2201.99 -4858.86 
5.88e-07 11.1922 -0.0196481 3.06789e-10 102755 102512 102711 -369.564 29014.8 9933.25 -8484.53 
5.96e-07 11.468 -0.0372937 2.77829e-10 102840 102649 102792 -377.493 19083.9 -9885.53 5602.98 
6.04e-07 11.4662 0.000504211 1.30069e-10 102963 102536 102838 -377.901 15316.9 -764.275 -20486.9 
6.12e-07 11.9884 -0.0106272 5.95854e-11 102790 102525 102745 -377.218 -46608.3 3950.18 -7267.02 
6.2e-07 11.9449 -0.00730482 -1.21458e-10 102947 102546 102909 -374.106 -17774.6 -6922.48 21045.5 
6.28e-07 12.1508 0.0431171 2.1346e-10 102707 102603 102742 -411.691 -3487.38 12244.9 16728.1 
6.36e-07 12.2145 -0.0876524 2.75821e-11 102802 102552 102738 -386.149 10529 -12422 6455.77 
6.44e-07 12.5876 0.0624317 1.27142e-10 102815 102536 102761 -374.272 -3317.53 11293.5 48339.1 
6.52e-07 12.4796 0.0197427 5.59476e-11 102704 102485 102618 -396.024 10791.8 -9158.35 -19888.6 
6.6e-07 12.9585 -0.0549632 -1.75433e-11 102666 102530 102762 -341.647 -7598.12 10175.8 32525.8 
6.68e-07 12.9504 0.0823345 -1.60108e-11 102688 102597 102676 -403.04 8494.49 2965.93 14669.8 
6.76e-07 13.1716 -0.0791995 1.57169e-10 102766 102553 102817 -407.401 -4044.07 -2884.07 3281.41 
6.84e-07 13.2291 0.00515598 1.86297e-10 102765 102581 102790 -383.19 -28810.8 -4292.87 47055.9 
6.92e-07 13.0269 0.0490948 9.36193e-11 102695 102533 102649 -381.593 21575.5 6032.96 6089.14 
7e-07 13.3315 -0.00177089 1.04042e-10 102879 102561 102826 -408.797 -20603.6 1222.68 -27258.6 
7.08e-07 13.3502 -0.010097 -4.4227e-10 102873 102552 102796 -366.622 4111.01 14911.4 55985.6 
7.16e-07 13.6206 0.0158668 -1.3851e-10 102955 102527 102900 -413.343 -45851.6 -5128.43 7345.37 
7.24e-07 13.7571 -0.0524503 2.00115e-11 102824 102583 102711 -362.571 -9436.94 -2102.8 42920.7 
7.32e-07 13.901 0.0467038 2.72597e-10 102921 102541 102858 -398.766 26743.2 8046.4 24026.5 
7.4e-07 14.1452 -0.0119489 4.80061e-10 102932 102556 102730 -393.517 42970.3 854.535 23901.4 
7.48e-07 14.0369 0.0045584 -1.08487e-10 102906 102540 102726 -365.884 26980.3 1195.25 -16077.2 
7.56e-07 14.1805 0.0630732 -2.34925e-10 102749 102557 102681 -397.263 24004.3 530.359 17186.1 
7.64e-07 14.5378 -0.053909 -4.86838e-11 102882 102570 102811 -397.984 -26014.9 984.428 15898.4 
7.72e-07 14.7316 -0.0191997 -5.79522e-11 102808 102570 102650 -372.16 43025.8 1030.52 11243.6 
7.8e-07 14.8688 0.0236788 9.44023e-11 102953 102524 102839 -383.456 21923.4 -39.1287 6829.52 
7.88e-07 15.1715 0.0316404 -2.71511e-11 102748 102557 102536 -364.212 -18546.7 3236.27 11967 
7.96e-07 15.0918 -0.0913112 2.37199e-10 102690 102551 102684 -406.349 24689.8 2075.33 24877.3 
8.04e-07 15.6624 0.0387071 7.89709e-11 102842 102597 102604 -386.926 -56602.4 5984.19 -7230.73 
8.12e-07 15.4547 -0.0101986 -1.53021e-10 102719 102574 102615 -377.407 -31476.6 -4595.35 29862.9 
8.2e-07 15.6463 0.0662485 1.0225e-11 102888 102516 102820 -423.618 7059.32 -1831.55 7156.88 
8.28e-07 15.4841 -0.0129161 5.20616e-10 102729 102576 102684 -380.561 27285.1 12480.6 -6289.37 
8.36e-07 15.8152 -0.0094564 2.23055e-10 102898 102530 102758 -385.793 20407.9 2638.64 -8609.38 
8.44e-07 15.9398 0.00325284 -4.14237e-10 102776 102579 102794 -374.667 35952.4 10911.2 -10618.1 
8.52e-07 15.8329 -0.0155835 -9.95166e-11 102820 102596 102770 -378.349 35035 -4424.18 -50317.5 
8.6e-07 16.3228 0.000842328 -7.77164e-12 102629 102525 102772 -394.433 5736.07 13359.6 -48658 
8.68e-07 16.085 0.0262979 2.46159e-10 102659 102543 102608 -405.432 45605 636.012 -37155.9 
8.76e-07 16.1279 -0.0373706 7.0688e-11 102702 102571 102761 -361.825 38173.9 -2981.94 12503.4 
8.84e-07 16.2504 0.0108007 1.83818e-10 102813 102564 102693 -405.303 10463.8 5416.11 -32526.8 
8.92e-07 16.3071 0.058765 -1.37943e-10 102649 102563 102591 -408.126 14080.1 7053.85 7538.95 
9e-07 16.4578 -0.0387352 7.58325e-11 102757 102529 102651 -388.153 19754 -3168.34 -39374.4 
9.08e-07 16.8069 -0.0216321 1.79346e-10 102902 102564 102894 -386.857 -6434.48 7066.59 -18822.8 
9.16e-07 16.9947 0.00301958 -1.82014e-10 102844 102533 102760 -365.652 -8077.41 -3870.96 -30630.3 
9.24e-07 17.3856 -0.0238112 -1.0426e-11 102888 102606 102822 -371.056 -2057.64 -3797.63 5748.26 
9.32e-07 17.4556 0.016317 -2.00743e-10 102792 102555 102589 -413.778 -13025.4 13655.8 -32734.1 
9.4e-07 17.5203 -0.0297525 1.29968e-10 102817 102550 102583 -385.49 -14201.1 -8838.65 -1345.13 
9.48e-07 17.7433 0.0414117 -6.80877e-12 102591 102553 102591 -400.74 -17289.5 16714.9 -16834.6 
9.56e-07 17.9093 0.0187564 1.16212e-10 102777 102567 102767 -389.142 -324.699 -996.642 -42389.2 
9.64e-07 18.0951 -0.0298071 -8.60284e-11 102979 102559 102758 -356.419 -25954.4 -4344.05 7302.73 
9.72e-07 18.4169 0.0267796 -1.84869e-11 102622 102565 102768 -414.775 -9565.64 2833.66 14560.8 
9.8e-07 18.1699 -0.0576906 -9.85105e-11 103003 102587 102976 -378.148 5350.88 -9085.07 -23961.5 
9.88e-07 18.2277 0.00601575 -1.60866e-10 103142 102617 103053 -391.209 25.8877 -8746.11 -19265.4 
9.96e-07 18.6901 0.032646 2.93697e-10 104481 102527 104603 -395.287 -46911.4 -13094 -43078.3 
