ITEM: TIMESTEP
500000
ITEM: NUMBER OF CELLS
500
ITEM: BOX BOUNDS pp ss pp
0 0.0001
0 0.0004
0 0.0001
ITEM: CELLS yc f_vel[1] f_vel[2] f_vel[3] f_mom[1] f_mom[2] f_mom[3] f_mom[4] f_q[1] f_q[2] f_q[3] 
4e-07 -1.78663 0.0326975 6.06853e-08 3860.66 4642.08 3850.14 22.5694 11088.9 118950 -393.937 
1.2e-06 -6.38412 0.820692 1.6545e-07 1814.83 3554.71 1784.02 24.0429 3299.25 97930.2 -14311.7 
2e-06 -0.0329708 0.0393556 -2.73756e-08 90065.6 91020.9 89790.2 -9.58584 -155123 98814.5 -271919 
2.8e-06 -4.15459 25.1677 -9.03724e-08 2015.3 3766.59 1983.99 6.25955 8249.41 162681 -8946.68 
3.6e-06 -4.22683 24.0543 -1.70634e-07 2100.67 3793.74 2078.35 15.7715 6709.14 190442 -3634.38 
4.4e-06 -4.79976 23.4442 -1.68033e-08 2246.21 3742.88 2260.85 26.9858 18007.4 182347 3990.65 
5.2e-06 -2.59794 22.818 2.73177e-07 2381.58 3687.86 2357.88 16.5221 4951.54 163988 3153.4 
6e-06 -0.840224 23.426 -1.81153e-07 2469.77 3646.73 2453.51 15.1668 9765.29 148620 8552.31 
6.8e-06 -1.62567 24.0635 -1.40826e-07 2546.61 3593.95 2543.43 13.4944 5658.43 121143 5559.2 
7.6e-06 -4.88251 24.0165 -1.32722e-07 2669.4 3561.45 2663.34 13.1881 16107.4 112125 14692.9 
8.4e-06 -2.3182 24.7265 2.5106e-07 2747.86 3542.02 2731.18 27.3746 13028.3 99356.7 4464.5 
9.2e-06 -2.01701 24.5067 -1.79572e-07 2859.5 3526.22 2856.14 5.11172 3473.44 96598.3 804.116 
1e-05 -3.91446 25.4247 6.70539e-08 2900.78 3494.22 2887.83 9.47094 67.318 87719.5 13146.8 
1.08e-05 1.53799 26.2988 -1.53561e-07 2901.48 3477.53 2936.07 -3.60105 -9265.13 77653.2 10710.6 
1.16e-05 -1.45356 26.3201 1.46781e-09 3026.49 3466.39 3024.4 14.781 14011.4 72702.9 15503.6 
1.24e-05 -0.969449 27.3582 9.95381e-08 3048.71 3445.17 2965.93 4.65064 6598.14 63493.9 16845.8 
1.32e-05 -2.37122 27.4725 1.1195e-07 3094.13 3446.32 3064.83 9.6879 635.494 61376.6 1546.52 
1.4e-05 -1.70806 28.2669 8.37141e-08 3071.6 3436.5 3073.15 6.56334 -5762.23 52548.1 1220.58 
1.48e-05 -0.515803 28.3943 2.03221e-08 3146.94 3433.23 3131.3 6.94645 -391.59 52463.6 -403.119 
1.56e-05 0.345652 29.2654 -5.90828e-08 3089.12 3423.51 3116.93 0.154975 -2485.38 46268.6 5034.68 
1.64e-05 -1.78537 29.4564 -1.37241e-07 3118.04 3419.8 3154.03 -3.1537 2404.73 47310.3 3481.8 
1.72e-05 -1.39359 29.448 -1.1007e-07 3158.6 3415.53 3144.11 15.0916 4369.04 41819.5 8337.87 
1.8e-05 -0.368978 29.9668 -3.7034e-08 3144.08 3412.16 3183.56 -4.5549 427.854 38091 1152.39 
1.88e-05 0.843195 29.8191 -1.35732e-07 3232.88 3424.59 3237.86 -2.30319 1929.96 44489 1951.5 
1.96e-05 -0.445657 29.949 8.49905e-08 3267.51 3414.08 3246.84 1.96527 1864.27 43111.7 9531.79 
2.04e-05 -1.07565 30.7432 1.57996e-07 3225.03 3405.61 3267.73 0.3714 9239.05 36508.8 -1413.34 
2.12e-05 -1.02406 30.3384 -1.00208e-07 3267.17 3412.87 3313.27 -1.8308 1868.79 39495.9 15822.6 
2.2e-05 1.47233 31.5327 8.44855e-08 3222.37 3401.49 3214.61 -4.07741 1196.35 33686.1 4124.42 
2.28e-05 -0.24846 31.3789 -2.89313e-08 3265.25 3395.48 3255.6 2.88854 46.395 32586.9 16600.6 
2.36e-05 -0.747112 31.9375 -2.24537e-08 3223.81 3393.61 3238.78 -15.6882 7803.87 32715.9 6439.4 
2.44e-05 -3.97871 31.7573 -4.02154e-08 3229.72 3397.99 3245.81 7.30243 6559.17 36337.9 8681.68 
2.52e-05 1.17076 31.9636 2.67917e-08 3230.78 3388.09 3207.86 -10.2828 1896.81 32647.6 -2466.2 
2.6e-05 -1.18483 32.3504 6.21325e-08 3215.86 3389.23 3227.7 -6.25033 9531.41 30370 6605.29 
2.68e-05 1.09935 32.4101 -6.92718e-08 3259.02 3379.59 3250.66 2.29612 -3603.02 31239.4 9515.7 
2.76e-05 2.23201 32.4462 -1.04737e-07 3284.4 3378.12 3266.11 0.839576 -7271.67 29344.6 7307.24 
2.84e-05 -1.46326 32.9478 3.46557e-07 3232.16 3366.26 3222.92 2.00576 -2259.84 32327.3 5247.97 
2.92e-05 1.36496 32.7655 1.33795e-08 3250.68 3372.69 3263.53 -1.60528 457.038 33018.8 -2535.17 
3e-05 -0.603248 32.9119 -2.64676e-08 3236.93 3367.68 3275.22 3.21016 -1322.02 33170.1 6577.36 
3.08e-05 0.680298 32.5972 -1.58179e-09 3302.34 3368.66 3314.19 -11.8026 -1540.58 36169.8 4146.02 
3.16e-05 -1.44552 33.488 -1.35942e-07 3221.7 3360.95 3217.63 -1.63753 -13024.5 29932.6 13741 
3.24e-05 -1.57529 33.5951 1.79173e-07 3266.01 3355.56 3261.29 3.48533 6949.06 32036.6 -3124.2 
3.32e-05 -2.92059 33.4459 9.17039e-08 3258.29 3362.78 3273.3 4.42342 -1477.13 33489.6 -10220.9 
3.4e-05 -2.25281 33.9255 -1.16876e-07 3277.59 3353.73 3255.04 -8.06042 4449.59 30331.4 -2341.63 
3.48e-05 -2.74969 34.2227 -2.50453e-08 3303.39 3345.25 3231.7 0.260692 -4606.12 27013.4 5110.17 
3.56e-05 -2.83008 34.3271 4.0363e-08 3275.05 3356.17 3311.28 4.49371 -10848.5 30618.5 2453.34 
3.64e-05 -2.88917 33.92 -4.70793e-08 3307.04 3348.02 3294.58 3.71189 945.278 34377.3 4211.14 
3.72e-05 -2.26463 34.5338 2.75895e-07 3289.78 3345.4 3316.95 3.52996 394.624 31119.4 1125.98 
3.8e-05 -2.81354 34.9978 -2.7332e-07 3215.29 3333.96 3222.6 0.65606 3471.32 31428.3 3837.37 
3.88e-05 -2.61266 34.5835 -2.07106e-08 3264.21 3336.74 3275.08 6.10005 -1302.74 31525.9 9189.09 
3.96e-05 -1.86875 34.4494 6.02571e-08 3298.15 3338.49 3290.67 7.92869 -7309.5 33943 -9821.48 
4.04e-05 -2.36168 34.3141 3.43266e-07 3271.71 3338.6 3288.96 5.35918 -17743 37768.1 12582.6 
4.12e-05 -2.83523 35.1921 1.25854e-07 3221.24 3319.21 3242.64 -1.04078 -11815.6 34783.8 3507.97 
4.2e-05 -1.96766 34.2456 -1.36829e-09 3324.84 3327.46 3320.4 -3.16045 5165.78 38162.8 1396.58 
4.28e-05 -2.14451 34.8946 -2.07736e-08 3254.46 3333.17 3283.56 -1.03502 6416.45 37191.4 7114.04 
4.36e-05 -2.41432 35.5598 4.13935e-08 3235.65 3329.66 3289.34 4.43713 -1521.37 31277.4 -15247.2 
4.44e-05 -1.14813 35.371 -2.4814e-07 3250.53 3332.98 3312.99 -5.69013 -1712.17 37580.3 -1896.57 
4.52e-05 -2.12461 36.0917 1.36872e-08 3218.77 3314.59 3236.68 1.42434 -4361.5 34212.5 -2436.24 
4.6e-05 -2.92091 36.1707 4.15222e-08 3189.92 3314.45 3203.76 6.65114 -5081.75 33915.7 -3500.44 
4.68e-05 -1.10519 36.2241 5.09512e-08 3254.5 3318.84 3239.05 1.49438 5263.75 33744.4 782.395 
4.76e-05 -2.48013 36.8995 4.13062e-08 3225.84 3315.4 3235.21 0.758655 1004.4 31073.4 5106.23 
4.84e-05 -2.35014 37.331 1.28247e-07 3217.48 3307.92 3230.58 -0.238998 -6401.98 28597.9 -2841.28 
4.92e-05 -2.06599 36.5679 5.05825e-08 3268.25 3304.6 3259.54 0.24223 -5045.5 35020.3 1791.09 
5e-05 -0.90175 37.1278 -7.07014e-08 3222.61 3305.49 3264.22 4.15168 -2675.15 35220.4 10369.1 
5.08e-05 -1.35123 37.6013 -1.05264e-07 3311.97 3309.12 3291.16 0.495511 -7274.02 27716.4 3062.96 
5.16e-05 -2.4454 37.4728 -2.07068e-07 3285.63 3303.52 3286.51 5.10249 2041.7 32565.2 -2021.02 
5.24e-05 -1.22786 37.7041 -2.37222e-08 3266.02 3319.86 3230.24 2.10957 5404.41 28274.7 4194.84 
5.32e-05 -1.14029 38.4544 2.10014e-07 3215.19 3303.63 3243.55 2.22929 8012.51 28732.2 -383.273 
5.4e-05 -1.69251 37.9761 1.82372e-07 3326.09 3308.82 3337.56 7.98008 841.888 30793.7 5931.01 
5.48e-05 1.15131 38.7633 1.35678e-07 3310.89 3306.84 3276.4 -3.42394 -8525.5 24532.2 -4239.65 
5.56e-05 3.35396 38.7763 -9.52848e-08 3279.06 3305.26 3274.35 -10.6083 -6801.75 29671.4 -4587.48 
5.64e-05 0.792883 39.5426 1.32664e-07 3279.15 3299.69 3255.15 0.650125 -2060.28 25269.4 5213.92 
5.72e-05 0.42924 39.0883 -2.75559e-07 3293.41 3308.3 3259.04 -12.4127 -5826.3 31926.9 11063.9 
5.8e-05 -2.5084 40.2766 -2.87488e-09 3219.35 3303.66 3199.52 -4.8048 8904.28 26526.2 127.353 
5.88e-05 -1.3973 39.8337 -1.97712e-07 3280.61 3299.02 3278.45 1.31435 -5606.85 32154.7 -7671.44 
5.96e-05 0.879587 41.1913 9.19499e-08 3202.25 3288.28 3208.02 -7.8663 -5598.65 24817.4 1625.63 
6.04e-05 1.38737 40.8465 3.16081e-07 3231.89 3305.29 3238.45 4.22863 5278.93 24617.5 -2153.91 
6.12e-05 -0.599015 41.3374 3.2126e-07 3215.88 3300.58 3226.95 3.61047 -7051.77 27420.7 -3648.2 
6.2e-05 0.691521 41.1189 1.23743e-07 3308.6 3303.51 3270.79 -0.205649 7922.91 27305.7 1704.08 
6.28e-05 1.8119 41.0117 7.99024e-09 3309.88 3303.05 3295.92 -4.24002 -4946.49 27532.9 -3354.01 
6.36e-05 -1.01162 41.3211 2.00278e-07 3313.96 3299.53 3273.98 -2.19595 10863 27006 584.352 
6.44e-05 0.220876 42.8273 -8.91128e-08 3197.55 3289.07 3209.75 -7.33437 -7112.48 21252 6974.72 
6.52e-05 -1.04709 41.8447 -2.37902e-07 3310.12 3310.35 3299.79 3.88907 4628.03 30012.1 -8272.33 
6.6e-05 -1.01237 43.2497 1.74409e-07 3244.86 3293.36 3217.15 4.75321 7184.56 21100.1 -6577.93 
6.68e-05 -0.933157 42.8273 -1.30925e-08 3281.55 3301.32 3277.42 -6.07807 10038.6 29781.1 203.442 
6.76e-05 -0.720665 44.251 -3.04441e-07 3193.82 3298.67 3182.21 -3.81604 -1282.44 23439.1 4573.67 
6.84e-05 -0.285332 43.7291 -1.16693e-07 3261.95 3313.14 3263.07 -5.57505 4764.91 26949.5 322.741 
6.92e-05 -0.14447 44.9051 -2.31257e-07 3186.43 3288.79 3220.26 -2.7773 -3479.65 23221.2 10642.5 
7e-05 0.151826 44.711 4.73675e-08 3254.1 3289.58 3231.25 2.28928 -2524.06 24427.4 10804.4 
7.08e-05 -1.94123 45.442 1.64928e-07 3220.55 3298.46 3256.75 -0.776754 -6879.58 20348.7 -1210.26 
7.16e-05 -1.34955 45.5238 -1.91895e-07 3288.26 3306.59 3258.53 2.81401 -1491.91 19917.9 1706.74 
7.24e-05 -2.48409 46.0273 2.5326e-08 3301.86 3297.46 3280.01 1.64667 10413.6 19289 6167.82 
7.32e-05 -1.66723 46.9251 1.00215e-07 3232.52 3295.71 3234.97 8.11881 4981.47 16668.5 2206.04 
7.4e-05 -1.09938 46.2776 3.35234e-07 3304.89 3304.16 3270.59 -4.05965 -1327.19 20685.3 -2458.29 
7.48e-05 0.788747 45.7617 2.17993e-07 3298.06 3314.49 3301.67 -1.54845 -2884.05 26397.8 4682.92 
7.56e-05 -0.427798 47.8095 -7.77409e-08 3259.95 3294.78 3259.17 -9.11562 7886.83 18734.3 8317.64 
7.64e-05 -0.195561 47.7911 -2.31096e-07 3263.79 3303.51 3282.64 -3.08956 -1181.9 17282 2288 
7.72e-05 -0.647305 48.4774 1.06571e-07 3261.61 3296.69 3250.73 -6.05668 -1909.23 15207.8 495.357 
7.8e-05 0.281534 48.2015 -1.70185e-07 3285.74 3301.78 3233.29 -12.1216 962.735 18888.6 1153.37 
7.88e-05 -0.345963 48.369 1.85989e-07 3306.24 3299.28 3252.39 -0.756022 -8853.03 20012.9 14463.1 
7.96e-05 0.387191 50.2442 2.21513e-07 3217.62 3280.84 3210.83 -2.70904 -5952.67 11761.4 -2304.56 
8.04e-05 4.12881 49.7853 3.94858e-07 3259.85 3296.6 3298.72 -21.6109 -4595.16 14683 -2122.81 
8.12e-05 2.11041 49.2807 3.58265e-07 3310 3298.64 3269.55 -0.158874 -6907.08 22192.4 15023.3 
8.2e-05 2.95184 49.7857 2.46045e-08 3240.32 3291.71 3281.13 -10.8785 -4165.28 20745.1 14007.9 
8.28e-05 -2.80189 49.5917 -6.34039e-08 3278.65 3314.75 3310.62 0.946527 9196.09 21882.3 -1265.22 
8.36e-05 -2.62623 50.9803 1.13643e-07 3255.24 3292.86 3270.46 2.79518 6193.72 12602.2 1020.64 
8.44e-05 -4.22942 49.9293 -3.37511e-07 3296.4 3312.47 3332.84 7.77162 6932.57 23962.5 -3588.13 
8.52e-05 -2.68059 51.1391 -3.11156e-07 3268.56 3303.12 3297.82 0.527947 10537.2 18016 -2383.41 
8.6e-05 -1.15301 51.4099 -6.64281e-08 3278.07 3304.7 3274.9 -3.56689 3034.62 17998.7 -4413.34 
8.68e-05 -1.36883 51.7265 3.14744e-08 3285.83 3307.6 3263.71 -0.381235 6383.03 14155.7 5234.53 
8.76e-05 1.12959 51.8293 3.67264e-08 3256.2 3296.03 3259.31 -4.49467 -4655.56 18431.4 2000.14 
8.84e-05 1.25693 51.7349 -4.48444e-08 3311.88 3306.82 3279.6 -13.7746 7280.28 18400.5 -1175.3 
8.92e-05 0.00931323 51.8697 -8.48321e-08 3326.59 3322.44 3318.31 0.612527 -1651.61 16268.5 4161.44 
9e-05 -1.34989 52.8612 1.69167e-07 3281.37 3303.52 3230.09 2.8413 6605.32 17750.3 -2580.86 
9.08e-05 -1.68327 53.141 -1.0222e-07 3261.83 3294.77 3273.75 11.7712 -1561.89 18711.8 -808.116 
9.16e-05 -0.39193 53.8119 -1.76004e-08 3261.28 3296.76 3280.4 0.663519 -6786.71 12401.3 -4957.13 
9.24e-05 -0.245531 54.3323 -2.32217e-07 3222.25 3280.81 3242.87 0.417948 -4418.55 11279.3 -18047.5 
9.32e-05 -2.46339 54.3486 1.69024e-07 3267.43 3295.11 3260.56 10.325 -4213.42 17077.6 -4482.87 
9.4e-05 1.40667 53.5627 -2.57683e-08 3282.95 3300.6 3278.16 -3.22964 -3873.57 23228.6 -3189.21 
9.48e-05 0.548905 54.1007 2.38358e-07 3235.61 3299.01 3225.74 10.2949 766.214 19223.3 -1615.82 
9.56e-05 0.480702 54.3489 -1.2585e-08 3238.44 3298.8 3259.87 -7.15515 -4677.73 18492.2 -4153.57 
9.64e-05 -1.56777 54.8076 9.44365e-08 3251.52 3302.4 3254.99 7.53272 -1857.78 15920.1 4742.5 
9.72e-05 -1.49017 55.6887 2.02803e-07 3267.41 3292.94 3255.51 8.55774 -249.649 11633.3 -2623.55 
9.8e-05 -1.11209 55.5151 1.50886e-07 3252.23 3290.15 3252.17 13.6003 1328.22 14866 -7353.21 
9.88e-05 1.33941 55.8675 1.64248e-07 3260.97 3308.18 3291.6 0.444657 -4137.69 16039.8 -832.334 
9.96e-05 3.10709 55.7074 3.19787e-07 3236.35 3306.1 3312.48 -14.5282 -2030.32 17765.6 -5808 
0.0001004 3.04856 56.5673 1.40335e-07 3267.78 3303.53 3308.35 -5.29198 -5034.25 14718.1 -11676.2 
0.0001012 1.16608 56.662 -1.60068e-07 3268.12 3294.58 3273.63 -6.13697 4948.25 16640.7 -4355.62 
0.000102 0.630759 56.759 1.07528e-07 3265.83 3303.25 3279.75 -4.37853 -5507.65 12202.5 -1415.92 
0.0001028 0.473572 57.585 -1.65935e-08 3248.84 3291.66 3248.29 -0.226092 -6317.23 13703.9 1741.86 
0.0001036 1.34471 57.9478 2.09462e-07 3234.07 3293.96 3243.2 -2.09661 -10966.3 8960 -3322.13 
0.0001044 -1.50512 57.7599 -2.86838e-07 3267.97 3289.56 3278.12 10.0679 -7208.12 13682.1 2448.66 
0.0001052 -3.28092 58.7354 -1.53181e-07 3226.96 3284.99 3268.97 8.4883 1432.84 8245.45 -4817.7 
0.000106 -2.28942 57.6257 1.44244e-07 3328.41 3297.7 3334.42 8.17426 1050.17 12105.2 1357.93 
0.0001068 -0.468124 58.4249 1.56347e-07 3298.27 3295.67 3304.2 -0.899239 1267.45 12057 -7827.55 
0.0001076 0.655872 58.9427 1.28164e-07 3261.42 3288.41 3282.22 3.50651 -8214.31 11380.6 -5126.17 
0.0001084 -2.28078 59.3201 -2.12105e-07 3288.04 3297.02 3253.72 17.2381 2700.42 11061.7 -5625.35 
0.0001092 -1.46345 59.1456 -1.30876e-07 3243.35 3296.65 3254.29 -1.13463 -6485.53 15691.3 4746.23 
0.00011 3.53054 59.6502 3.66723e-08 3236.77 3298.48 3256.49 -5.44932 -5619.72 13051.4 -2011.32 
0.0001108 -0.628778 60.921 1.48218e-07 3233.41 3280 3221.93 11.4082 5391.67 6708.88 -1894.6 
0.0001116 0.546255 59.8439 -1.39825e-07 3306.85 3292.59 3309.48 6.30461 138.068 13890.1 -7190.65 
0.0001124 4.3089 61.5239 3.84588e-08 3256.06 3281.47 3256.71 -15.67 -8318.81 4612.85 2598.66 
0.0001132 -0.134435 60.3552 -1.04329e-07 3312.52 3301.36 3336.33 6.55991 10275.6 12540.4 -3624.25 
0.000114 2.15309 61.6965 4.77553e-08 3258.51 3294.22 3330.13 0.397401 -4164.01 6931.16 10684.6 
0.0001148 1.68697 61.2012 -4.25865e-08 3268.45 3290.48 3299.66 -0.470262 7884.6 11716.2 -5044.83 
0.0001156 -2.27034 61.7963 -1.02189e-07 3284.37 3297.01 3278.82 15.3058 13274.9 8852.06 46.9826 
0.0001164 -0.744913 61.525 1.60172e-07 3308.13 3303.14 3313.12 8.38904 8262.93 12024 3542.5 
0.0001172 -0.788983 62.4292 -4.91711e-08 3271.65 3298.38 3264.2 8.41243 5484.13 9091.75 3963.51 
0.000118 -0.0386309 62.403 -1.86075e-07 3320.85 3296.43 3271.68 2.49572 7028.56 9436.7 -4532.35 
0.0001188 1.4431 62.9675 -2.16838e-09 3321.28 3298.63 3302.87 -0.845766 7056.92 8888.69 3380.97 
0.0001196 1.81886 63.1243 8.9392e-08 3308.48 3302.79 3263.42 1.3017 -3682.86 9992.41 95.7102 
0.0001204 2.93593 63.9253 1.90396e-07 3271.14 3297.1 3275.31 -8.40547 2160.45 4191.12 -2119 
0.0001212 3.64831 63.9907 -6.44862e-08 3306.92 3294.27 3249.53 -18.7435 -3073 9560.49 -2564.6 
0.000122 1.36544 63.7688 8.50014e-08 3288.44 3294.92 3245.33 -1.84369 -1067.18 11692.9 7478.2 
0.0001228 0.369126 64.0828 2.81206e-07 3295.17 3297.85 3293.71 3.88166 -3411.79 15499.1 3698.78 
0.0001236 1.4175 64.207 1.39596e-07 3304.12 3300.87 3270.05 -2.36495 -8130.98 13256.5 454.307 
0.0001244 -1.23553 64.4863 -3.4005e-07 3334.83 3310.6 3318.05 6.09021 1569.28 11833.1 7477.58 
0.0001252 -0.340952 65.8035 -5.76e-08 3305.36 3302.12 3297.1 5.23952 -6006.69 4750.89 7203.85 
0.000126 2.40581 65.6213 1.44002e-07 3305.64 3303.29 3305.85 -9.75296 -2192.91 11170.9 -2482.26 
0.0001268 4.72784 64.7288 4.26265e-08 3327.51 3331.22 3320.48 -18.5826 2407.46 16329 4403.92 
0.0001276 3.81212 67.3387 1.58495e-07 3265.74 3297.55 3272.9 -7.36541 -402.677 2838.42 -214.618 
0.0001284 2.34985 66.1005 -2.08689e-07 3337.54 3321.86 3349.32 -2.71801 4260.2 10219.2 -6310.88 
0.0001292 2.06367 65.8573 -3.62244e-08 3340.67 3323.36 3280.69 1.90303 -6737.75 13190.8 -4396.61 
0.00013 1.21667 66.6205 -1.50219e-07 3282.72 3313.48 3292.93 10.7298 -9308.75 10653.8 -10948.6 
0.0001308 1.06178 68.1425 -6.94734e-08 3254.66 3298.85 3254.24 1.51742 654.752 9798.98 -6139.1 
0.0001316 0.863026 68.325 3.01483e-07 3265.58 3307.2 3266.99 11.0888 4944.6 10859.2 -1690.16 
0.0001324 1.40155 67.4551 1.2011e-07 3313.51 3333.75 3341.14 1.02628 5079.87 12514.1 968.303 
0.0001332 0.912004 67.4088 -2.06916e-08 3279.57 3331.72 3298.73 -4.98049 9148.26 18642.4 1633.19 
0.000134 2.45755 68.1462 1.2756e-07 3283.65 3334.3 3321.02 -9.14009 -4800.4 13759.6 -5491.97 
0.0001348 1.02447 67.4252 -1.01143e-07 3362.26 3348.75 3343.16 3.0003 920.071 16694.1 5562.04 
0.0001356 0.442499 68.984 -3.65922e-08 3276.44 3329.6 3309.02 -0.315705 420.747 13204.7 -4228.8 
0.0001364 0.660312 69.4114 1.50222e-07 3289.09 3326.16 3283.18 3.37466 -1227.9 10748.8 344.553 
0.0001372 1.80962 69.7922 1.05952e-07 3267.05 3320.26 3268.61 0.106685 -4267.27 13139 -5461.38 
0.000138 3.89388 69.8979 1.21513e-07 3243.55 3325.23 3268.54 -22.1303 -4937.13 14983 -8325.17 
0.0001388 4.41981 69.6644 5.95599e-09 3277.08 3334.66 3279.42 -6.13101 -1555.83 16998.8 9856.55 
0.0001396 0.343391 69.6181 -1.43151e-07 3318.08 3342.22 3305.35 9.20732 -462.952 23573.2 2528.77 
0.0001404 1.50845 68.8948 2.40789e-07 3307.05 3364.48 3348.81 6.06069 -397.709 23151.5 -9324.72 
0.0001412 1.84034 71.2008 4.26534e-08 3218.3 3322.04 3279.14 -10.3749 2318.43 15179.3 -13801.1 
0.000142 3.27642 70.2693 -1.65402e-07 3307.89 3349.14 3284.22 -10.7139 -4094.11 21032.7 2980.42 
0.0001428 3.17675 69.0738 1.35804e-07 3364.09 3364.38 3374.98 -8.36234 382.899 26540 -1625.65 
0.0001436 2.52765 71.3313 1.85761e-08 3281.7 3346.38 3301.13 3.37991 -1944.18 18446.5 -4493.78 
0.0001444 3.54109 70.8592 -6.10125e-08 3290.3 3339.09 3312.38 -8.78478 -5663.83 19393.4 -4035.5 
0.0001452 3.22751 71.0853 -2.72283e-07 3336.95 3335.9 3285.52 -9.47926 -2998.14 20514.7 -2725.98 
0.000146 2.8455 71.4426 1.85266e-07 3295.22 3332.45 3264.64 -2.08461 -9928.74 22907.3 -79.8282 
0.0001468 1.18071 73.0006 -6.86273e-08 3276.84 3321.55 3236.5 9.23477 -220.851 13017.4 -2916.85 
0.0001476 2.54518 73.8212 1.31386e-07 3235.42 3318.87 3232.13 1.07675 -4548.52 10450.1 5656 
0.0001484 2.70336 72.7497 -1.09852e-07 3234.26 3325.77 3281.75 -1.68832 1362.79 15954.6 10103.6 
0.0001492 3.83894 72.2305 2.0625e-07 3275.04 3332.75 3285.86 -8.32887 -8159.67 19082.4 -3239.49 
0.00015 3.46397 72.7981 3.84801e-08 3270.05 3327.33 3265.15 -8.96667 -1591.61 17659 -12363.8 
0.0001508 1.73379 72.8807 1.91194e-07 3269.42 3322.64 3284.07 9.3799 69.4048 13207.7 -1791.13 
0.0001516 2.8019 73.4039 3.35947e-08 3283.42 3322.75 3280.98 4.43723 5808.41 11108 -2247.93 
0.0001524 5.29143 73.1424 2.5758e-07 3290.55 3333.29 3307.65 -3.07511 -1855.6 17980.8 -2285.98 
0.0001532 0.704193 73.7635 4.47875e-08 3317.32 3322.26 3309.73 10.3311 4800.8 13816.7 2696.85 
0.000154 3.54863 73.04 1.95202e-07 3290.7 3335.99 3292.73 11.9783 -518.74 23279.9 -970.057 
0.0001548 4.44908 74.4095 4.62836e-07 3256.06 3314.62 3272.09 -9.86774 -1312.43 13205.8 2904.87 
0.0001556 5.29299 74.8787 1.38908e-07 3226.5 3303.53 3213.66 -9.8194 -2740.36 16532.8 1171.41 
0.0001564 3.76953 73.8631 2.82457e-08 3278.79 3327.95 3305.23 -0.430087 2264.66 17385.6 2692.61 
0.0001572 3.98864 74.6669 2.46523e-08 3278.52 3313.69 3269.45 -9.32076 84.0139 15507.2 -3033.97 
0.000158 3.79287 76.5282 1.67307e-08 3221.46 3292.49 3244.29 -9.27889 7268.64 3790.55 -478.7 
0.0001588 3.86428 74.9277 6.53508e-08 3300.01 3309.98 3283.61 -0.190541 2836.24 15170.4 4571.15 
0.0001596 1.58047 74.8436 -6.43329e-08 3294.5 3316.09 3303.21 16.5791 3292.43 11551.8 4126.02 
0.0001604 3.0337 76.6549 -5.98082e-08 3239.87 3290.88 3245.86 -1.84055 -101.276 8906.37 -4449.17 
0.0001612 2.81851 77.3647 1.42635e-07 3209.64 3288.96 3195.81 -5.68506 845.699 10338.5 -876.745 
0.000162 3.23584 76.297 1.85541e-07 3241.29 3293.89 3254.47 9.76927 -3162.53 11648.8 8626.56 
0.0001628 5.00644 74.954 5.98021e-08 3295.17 3319.58 3277.1 5.16186 -11217.8 17353 -977.634 
0.0001636 5.17105 75.483 -9.88333e-08 3226.78 3316.48 3277.04 -6.77012 -6843.35 20243.8 1082.78 
0.0001644 4.62896 75.6273 1.06249e-07 3257.84 3309.49 3293.25 -1.57275 2019.35 16909.9 -3234.66 
0.0001652 3.39787 74.8462 -5.59477e-08 3325.99 3320.15 3331.77 8.10216 2525.83 20452.4 5.13551 
0.000166 3.20247 75.9926 5.10935e-08 3258.5 3312.57 3250.06 3.72474 -4214.16 17043.1 3639.04 
0.0001668 4.22445 77.7829 -2.43815e-08 3212.57 3286.01 3233.37 -2.02658 -1686.21 11018.2 10155.7 
0.0001676 4.48916 76.0222 2.05984e-07 3322.87 3318.79 3316.22 -1.04787 4435.24 13897.5 2466.83 
0.0001684 2.18818 77.1945 -2.8442e-09 3309.08 3295.89 3275.02 12.4999 -7642.19 8905.98 -5203.85 
0.0001692 3.73563 77.3326 -2.36203e-07 3276.01 3297.46 3281.86 -6.66013 545.962 9538.75 -573.07 
0.00017 4.0382 77.4892 4.17178e-08 3224.14 3281.8 3245.31 3.07823 204.013 12567.4 -8018.9 
0.0001708 3.05714 75.5998 1.08119e-07 3329.88 3319.36 3306.83 8.45531 298.461 24077.6 -2137.96 
0.0001716 3.76359 77.4782 2.40345e-07 3221.92 3291.37 3260.55 1.19795 -5465.06 13255.4 990.001 
0.0001724 0.798317 77.7666 -1.02362e-07 3238.44 3293.16 3230.26 22.227 2958.48 18603.1 5874.04 
0.0001732 2.61896 77.7187 5.3542e-08 3255.03 3293.78 3230.38 6.22716 -4907.85 16190.2 259.99 
0.000174 2.26114 78.6038 1.74756e-07 3221.84 3282.21 3217.64 11.4571 -894.461 10179.7 5454.77 
0.0001748 2.8269 78.505 1.85011e-07 3214.03 3282.04 3189.84 10.7457 1973.56 14536.9 4865.75 
0.0001756 4.85797 79.1521 -1.46309e-07 3272.24 3285.95 3259.08 -5.18335 -3245.98 8443.7 -6397.55 
0.0001764 4.32198 78.9605 1.03325e-07 3216.21 3290.93 3207.59 -7.11264 669.611 12245 3620.45 
0.0001772 5.22714 77.8523 -8.49094e-09 3266.52 3311.22 3271.87 -10.4973 3325.75 13470.7 180.25 
0.000178 4.63893 79.6368 -6.77336e-08 3236.16 3273.67 3228.44 -9.64323 -1414.96 6186.07 4791.32 
0.0001788 3.93918 79.221 -2.28338e-07 3212.44 3281.53 3243.02 -4.63453 1197.66 15256.8 -2944.63 
0.0001796 2.51884 79.1561 -1.45605e-07 3243.75 3286.8 3211.4 17.878 5182.48 12163.7 -1058.02 
0.0001804 2.27663 80.0018 6.50325e-08 3224.91 3272.4 3191.38 5.62648 7507.28 9603.32 -2267.04 
0.0001812 3.86849 78.8217 2.84399e-07 3230.58 3279.12 3215.03 8.29095 4165.45 18470 4610.42 
0.000182 3.80573 79.1879 1.60357e-07 3251.88 3279.1 3209.73 0.842568 -1833.38 17341.1 4035.18 
0.0001828 3.78309 79.6209 1.22756e-07 3214.1 3272.09 3290.56 -1.94049 -1488.42 8225.99 -1323.46 
0.0001836 3.66458 79.9074 3.02362e-07 3223.7 3274.68 3237.45 -3.92988 5879.49 13123.5 -8681.41 
0.0001844 4.07391 79.7799 2.42355e-07 3256.16 3265.24 3214.09 -0.00811017 -69.5741 13742.4 -255.543 
0.0001852 5.74865 77.6772 2.06848e-07 3284.01 3310.65 3290.56 -13.6674 -5126.87 19542.5 3370.86 
0.000186 5.66478 80.2186 -5.39214e-08 3238.2 3267.79 3252.76 -6.29979 230.537 17186.1 -4701.83 
0.0001868 4.05522 80.2208 -6.76707e-09 3238.03 3271.49 3266.85 1.4219 -5016.55 13298.9 -8303.18 
0.0001876 7.59285 79.675 1.45707e-07 3277.3 3281.12 3241.56 -22.8489 4183.13 12189.8 -2404.31 
0.0001884 5.83266 81.925 2.60998e-07 3189.96 3250.23 3221.96 -8.55178 7687.85 3964.82 5178.57 
0.0001892 4.14491 80.4801 1.81005e-07 3285.28 3276.75 3252.86 8.02098 -4472.35 9824.68 -1626.43 
0.00019 6.49176 81.6108 2.32009e-08 3226.98 3258.47 3203.65 -16.0681 -2687.17 7246.72 -3116.04 
0.0001908 6.34674 81.6586 1.36296e-07 3234.94 3253.7 3223.94 -6.28938 -527.792 7448.24 -2886.6 
0.0001916 7.13931 82.2585 -3.52754e-08 3237.53 3261.47 3193.11 -6.88881 5540.63 6767.25 -27.9719 
0.0001924 5.88556 81.6343 2.82368e-08 3251.47 3263.81 3224.89 -9.01985 152.868 10358.8 -1616.32 
0.0001932 6.7217 82.8006 2.24653e-07 3210.79 3246.03 3242.13 -14.1818 3180.76 -1278.3 1023.62 
0.000194 7.11452 82.0643 -1.14442e-07 3226.94 3254.19 3229.57 -15.1456 -595.983 7474.52 4002.72 
0.0001948 4.15954 81.7549 -2.03588e-08 3263.04 3253.48 3223.12 1.56982 4138.57 7588.59 2931.71 
0.0001956 6.21195 82.0344 1.95829e-07 3237.87 3268.32 3238.77 -7.46201 -8166.23 4872.59 -2721.94 
0.0001964 7.39461 83.3266 3.94625e-07 3224.04 3245.1 3211.82 -14.2098 -5467.01 1410.53 12955.4 
0.0001972 5.60848 82.0388 -1.01389e-07 3209.13 3264.86 3214.05 -15.9711 -3926.92 13306.1 -3680.72 
0.000198 4.89122 83.3951 6.52206e-08 3219.57 3242.37 3216.75 -10.1832 -4913.8 487.292 5848.22 
0.0001988 7.04809 82.2256 9.49337e-08 3272.08 3258.46 3239.59 -11.5287 -819.936 8486.51 4372.03 
0.0001996 3.76039 82.7376 1.8175e-07 3236.68 3254.98 3237.88 12.3253 -3433.48 4459.2 7925.68 
0.0002004 4.69415 82.6028 2.19617e-07 3231.98 3250.7 3216.61 12.806 -8202.29 8378.1 5153.42 
0.0002012 3.01224 81.8044 -1.32152e-09 3277.24 3268.03 3283.79 17.7448 932.952 11734.8 -7401.17 
0.000202 3.61673 81.668 -4.70406e-08 3257.98 3263.61 3226.12 2.13924 -4554.4 11108.7 8029.64 
0.0002028 3.10765 83.8767 -1.12708e-08 3212.01 3240.05 3198.45 10.551 2891.35 2354.83 3477.08 
0.0002036 3.49232 82.8611 4.87109e-08 3231.79 3253.17 3219.81 3.96914 -4249.29 9411.42 6461.37 
0.0002044 2.75481 83.5737 1.84498e-08 3203.25 3243.74 3206 19.7003 4352.49 4384.86 2025.82 
0.0002052 3.51502 82.6936 1.30034e-07 3203.77 3257.34 3228.05 7.46714 -5383.33 11080 12579.2 
0.000206 4.71162 83.1101 8.66357e-08 3217.29 3248.54 3219.95 -1.9373 -8604.31 9062.3 9183.38 
0.0002068 4.92175 83.1251 1.01639e-07 3221.63 3252.97 3221.08 1.50478 -597.244 6613.39 4011.61 
0.0002076 4.00894 83.7171 2.35383e-07 3210.71 3247.3 3197.75 13.6223 -4006.81 7239.19 1810.4 
0.0002084 3.53188 82.1047 3.38889e-07 3273.73 3259.69 3235.79 15.427 3728.27 12571.7 -2442.94 
0.0002092 6.1472 82.0984 1.14863e-07 3246.13 3269.16 3227.94 -15.9867 5738.25 12222.3 5549.67 
0.00021 5.15529 82.8403 3.39418e-07 3200.65 3256.58 3215.25 1.15133 1935.99 9072.78 -1392.46 
0.0002108 5.07538 83.9579 1.81851e-07 3172.44 3249.31 3194.3 5.52013 -3766.7 6990.71 4681.51 
0.0002116 4.8051 82.533 -1.15247e-07 3223.74 3264.5 3244.09 1.81428 2356.94 13899.2 -2466.61 
0.0002124 7.03161 83.4438 2.85233e-07 3232.25 3263.76 3245.25 3.12493 -634.231 3863.61 -4950.73 
0.0002132 7.07894 84.0681 7.31734e-08 3217.59 3251.01 3242.22 0.0389145 4909.59 -1637.88 -694.909 
0.000214 5.7314 83.0053 -2.47584e-08 3231.46 3273.36 3237.96 4.02775 -206.19 6393.72 5259.46 
0.0002148 6.425 84.055 1.87971e-07 3205.64 3248.02 3213.4 -0.0651191 2793.31 1910.94 4130.81 
0.0002156 6.25366 83.5817 2.38396e-07 3180.41 3249.35 3167.95 -11.1107 825.476 7993.21 -4733.39 
0.0002164 6.28871 82.1308 2.38647e-07 3261.57 3269.61 3246.6 0.0811713 4479.32 10259.1 1700.97 
0.0002172 6.18007 84.409 9.16109e-08 3191.88 3239.22 3159.88 11.6495 -5491.01 651.262 1117.77 
0.000218 3.55859 82.9588 2.21651e-07 3199.05 3253.51 3209.87 13.0135 -413.535 8584.35 4839.32 
0.0002188 2.5128 83.9202 1.30754e-07 3209.24 3248.14 3203.34 18.0575 4676.01 -2612.77 -3604.65 
0.0002196 7.01112 84.6174 1.12155e-07 3197.91 3239.15 3217.71 5.57066 3451.73 -4226.44 -775.441 
0.0002204 4.39715 82.3515 -1.87901e-08 3242.55 3274.67 3266.78 9.56398 -324.319 6076.57 -10851.9 
0.0002212 6.3206 83.4176 -4.92295e-08 3238.86 3260.31 3200.94 1.88632 -73.6338 370.821 -883.626 
0.000222 5.76926 81.8186 1.25892e-07 3249.41 3289.02 3259.72 11.0142 -2200.16 9218.61 -121.252 
0.0002228 6.51745 82.5761 -1.2789e-07 3269.12 3270.21 3251.57 -1.86687 -10861.9 -2761.54 1112.36 
0.0002236 8.06483 81.9288 2.79423e-07 3276.2 3287.14 3256.41 -6.49034 -5306.98 2818.81 -5566.2 
0.0002244 7.46728 81.6777 1.58135e-07 3228.24 3284.1 3233.71 -1.13039 -2228.01 11494.3 -839.024 
0.0002252 8.70266 81.0854 2.17564e-07 3221.99 3285.86 3221.02 -11.2325 896.697 14027.7 -1703.03 
0.000226 8.30372 81.3689 1.30681e-07 3279.96 3291.32 3271.36 -8.41495 2953.35 4206.12 1837.34 
0.0002268 7.71426 82.7801 2.16522e-07 3163.23 3271.81 3191.42 -1.37679 4496.47 3691.17 5216.95 
0.0002276 8.40349 83.4461 -1.75974e-08 3147.75 3258.38 3193.73 -18.4859 2910.58 -1951.54 2737.89 
0.0002284 7.73847 81.06 2.70963e-07 3266.9 3293.27 3271.04 10.3902 1189.9 2907.43 8213.26 
0.0002292 10.057 82.3361 9.30271e-08 3298.42 3290.53 3289.5 -16.1268 5963.24 -3978.8 -2027.2 
0.00023 8.15041 84.0591 5.52181e-08 3185.35 3255.47 3199.44 -6.21379 3009.36 -7100.81 -36.4674 
0.0002308 8.15169 82.2332 -2.74324e-08 3235.15 3277.98 3262.19 -6.71659 2057.12 -2141.01 11118.1 
0.0002316 7.37092 82.7953 3.60322e-07 3193.74 3287.13 3212.73 6.11059 -3373.3 -3916.14 -3933.41 
0.0002324 6.30591 82.5556 -9.87278e-08 3207.8 3288.08 3226.32 1.70169 3279.63 -2366.83 13518.4 
0.0002332 5.62651 81.7992 1.70102e-07 3227.79 3292.76 3275.61 14.1767 9929.5 -1091.71 1577.7 
0.000234 5.29993 82.4826 2.24205e-07 3220.8 3286.21 3209.06 7.26386 14268.1 -1905.7 7851.36 
0.0002348 7.48725 81.4397 1.01592e-08 3232.18 3297.93 3224.59 -6.87683 6862.79 5117.95 9513.4 
0.0002356 7.65169 81.9065 -2.03396e-08 3212.97 3285.06 3206.91 -3.95499 7974.59 -65.3328 8957.47 
0.0002364 7.01648 81.9316 -9.49966e-08 3191.04 3288.03 3204.97 1.21895 -4170.72 918.962 689.39 
0.0002372 6.5819 81.8668 1.60501e-07 3196.7 3288.52 3220.12 13.9015 896.603 -1358.18 1810.61 
0.000238 8.28831 81.6769 4.16869e-07 3229.49 3292.85 3209.59 -1.82144 8125.5 3641.09 4555.06 
0.0002388 5.38887 83.3356 2.84062e-07 3173.95 3276.95 3161.25 13.9571 -8012.32 -4216.52 -1559.29 
0.0002396 6.2834 82.5407 -2.67956e-07 3225.75 3288.86 3197.94 8.27863 3962.5 -1460.69 7852.06 
0.0002404 7.45892 83.3846 1.69213e-07 3151.91 3269.37 3189.83 -2.8625 -3763.96 -4875.13 391.374 
0.0002412 7.25255 82.9087 3.72964e-07 3181.68 3277.75 3216.3 -0.324352 -2368.05 -4825.02 1437.01 
0.000242 7.09547 82.4578 1.77615e-07 3178 3294.14 3221.91 0.907351 1874.87 -6636.64 6559.01 
0.0002428 6.41552 82.1295 3.04454e-08 3192.02 3284.04 3170.28 1.28002 -1844.7 3826.69 -4057.07 
0.0002436 7.6845 83.7666 1.24026e-07 3165.24 3273.29 3142.78 -5.70652 6178.55 -5953.85 -429.39 
0.0002444 7.25988 82.4047 -6.24276e-08 3201.21 3290.06 3212.4 2.26184 -4432.33 406.101 3025.03 
0.0002452 6.427 83.8918 1.44008e-07 3127.03 3262.52 3165.84 11.4706 -6025.35 -8030.15 1793.53 
0.000246 6.2766 82.2699 4.13316e-07 3178.1 3283.73 3215.41 0.702583 4711.6 -5006.15 6095.09 
0.0002468 8.46756 83.3397 2.71985e-07 3177.5 3276.3 3165.8 2.31583 -62.2672 -5998.61 1907.99 
0.0002476 7.79854 84.0536 -2.2252e-07 3118.25 3267.25 3178.93 -9.77824 744.882 -10407.7 3232.62 
0.0002484 11.3228 84.7847 2.64219e-07 3129.98 3248.68 3112.2 -21.9953 -2666.56 -12025.3 1462.43 