ITEM: TIMESTEP
500000
ITEM: NUMBER OF CELLS
125
ITEM: BOX BOUNDS pp ss pp
0 0.0001
0 1e-06
0 0.0001
ITEM: CELLS yc f_vel[1] f_vel[2] f_vel[3] f_mom[1] f_mom[2] f_mom[3] f_mom[4] f_q[1] f_q[2] f_q[3] 
4e-09 0.965665 -0.0212802 4.66623e-10 103323 102154 103410 -372.345 24939.7 2594.75 -14365.3 
1.2e-08 1.59245 -0.0068508 1.09446e-11 102184 102141 102266 -370.583 29681.8 -15779.4 -47627.3 
2e-08 1.64042 0.0175799 -4.77526e-11 102069 102151 102181 -378.3 18749.2 -1449.41 -14848.5 
2.8e-08 1.79251 -0.0434659 2.05665e-10 102126 102168 102271 -388.457 2372.13 -18605.1 -14981.3 
3.6e-08 1.95953 0.0483324 -5.18602e-11 102019 102133 102306 -384.119 -24352.9 -1020.21 6206.83 
4.4e-08 2.25258 -0.0493102 1.49178e-10 102044 102119 101960 -369.626 765.686 -15768.9 12464.1 
5.2e-08 2.5077 -0.0566404 3.20885e-10 101966 102116 102004 -366.791 -47309.3 -683.098 -15957.4 
6e-08 2.69524 0.0392324 1.91947e-10 101899 102165 101958 -414.468 -22763.8 -7083.49 -25514.4 
6.8e-08 2.94172 0.0779457 4.01038e-10 102017 102153 101976 -388.292 -23784.5 -15953.4 -20180.3 
7.6e-08 3.06813 -0.042185 -2.77869e-11 101918 102104 102080 -385.475 -65481.5 -8842.78 -50413.6 
8.4e-08 3.1979 0.00698558 5.42453e-10 101985 102157 102029 -353.297 -46275.6 5048.22 -65655.1 
9.2e-08 3.18735 -0.0120978 5.07412e-10 101988 102188 101924 -391.874 22520.4 -20942.3 -32137.5 
1e-07 3.2213 0.0153704 6.96093e-11 101870 102079 101946 -399.541 2716.86 -8995.67 -18446.3 
1.08e-07 3.5355 0.0190229 -5.52004e-12 102000 102145 101863 -358.907 -32174.1 6632.47 6424.9 
1.16e-07 3.68243 -0.0781581 -4.57438e-10 101883 102181 101815 -407.518 -3310.48 -21021.2 19482.7 
1.24e-07 3.65866 0.0124128 2.98895e-10 102068 102087 102067 -387.65 -37295.9 -2328.45 -4514.52 
1.32e-07 3.82668 0.071981 1.91133e-10 101956 102147 101754 -390.217 -12785.2 -10324.9 -6211.41 
1.4e-07 3.98365 -0.0165272 -5.0904e-10 101885 102167 101864 -379.712 10278.8 -2126.25 -38006.7 
1.48e-07 4.08782 -0.0418917 1.8333e-10 102009 102121 101916 -398.388 17170.5 -15871.7 -6400.17 
1.56e-07 4.14048 0.00403407 -1.74501e-10 101873 102162 101741 -393.735 5982.9 -2146.17 -37995.7 
1.64e-07 4.26662 0.0134615 -1.47832e-10 101961 102063 101950 -390.872 -12713.6 -5461.87 -28950.7 
1.72e-07 4.47764 -0.0215515 -2.35091e-10 101842 102192 101876 -366.06 -23588.9 -14105.9 -17960.4 
1.8e-07 4.3345 0.0358193 -2.37015e-11 101817 102119 101893 -392.962 11542.5 5189.72 -6623.39 
1.88e-07 4.75426 -0.0422408 3.12176e-10 102010 102142 102037 -418.541 11628.8 -15454.2 8663.63 
1.96e-07 4.62137 0.0344045 -1.11807e-10 102032 102176 102010 -377.312 18922 11417 12580.6 
2.04e-07 4.7291 -0.0447963 -5.76905e-11 102042 102085 101728 -393.426 34975.4 -29956.5 -39448.5 
2.12e-07 5.14854 0.045052 1.08612e-10 102025 102158 101733 -385.706 204.45 1196.07 -10593.5 
2.2e-07 5.20896 0.0430708 6.30201e-11 102012 102146 101738 -393.908 -8552.88 -10666.5 2924.34 
2.28e-07 5.39028 -0.0177257 7.68384e-11 102266 102125 101737 -374.844 -6214.32 604.678 -22702.5 
2.36e-07 5.60685 0.00387755 1.03978e-10 102168 102129 101997 -375.934 -55554.6 -13406.3 -11415.9 
2.44e-07 5.81628 -0.0313191 6.29944e-10 102033 102129 101833 -378.64 -37253.9 -4344.23 -23235.5 
2.52e-07 5.89925 0.0159204 -8.92727e-11 101884 102204 101697 -386.77 -4302.21 -18005.3 -10383.5 
2.6e-07 5.89656 -0.0367212 -4.9722e-10 101908 102100 101603 -397.918 -1669.41 -23.1342 4681.12 
2.68e-07 5.94091 -0.00979356 1.2393e-10 101779 102115 101688 -383.301 43535.2 -2302.76 1839.09 
2.76e-07 6.10569 -0.000833291 8.49764e-11 101909 102154 101801 -389.159 19560.6 2923 -28486.1 
2.84e-07 6.32651 0.0490719 -1.43495e-10 102040 102127 101863 -361.557 6832.63 -5205.9 -58827.5 
2.92e-07 6.55684 -0.0383955 2.85313e-10 102114 102161 101830 -375.687 -2141.22 -11879.1 -23989.9 
3e-07 6.88347 0.0163607 -3.95552e-10 102027 102127 101649 -383.423 33563.2 -376.956 -28689.8 
3.08e-07 6.73994 -0.066317 3.97827e-10 101956 102138 101724 -396.974 14345.2 -5380.78 -46619.8 
3.16e-07 6.81179 0.0283964 -7.95163e-11 101946 102139 102019 -377.379 29365.6 -179.518 -1898.07 
3.24e-07 6.99324 0.0740267 1.84228e-10 101860 102150 101779 -343.935 45790.4 -6213.17 4352 
3.32e-07 6.9488 -0.0414438 -5.07137e-10 101812 102121 101749 -420.826 15548 -9010.99 -12137.7 
3.4e-07 7.22902 -0.0265186 1.53332e-10 101763 102140 101809 -402.654 -5141.45 -1146.88 -23789 
3.48e-07 7.31972 0.0175566 2.01359e-10 101735 102161 101888 -385.372 -39217.3 -203.339 -37057.5 
3.56e-07 7.67902 -0.0613556 -1.04609e-10 101887 102089 101853 -403.369 1032.04 -15427.8 -12944.5 
3.64e-07 7.67816 0.047299 -4.00631e-10 102082 102203 102013 -369.515 -6825.88 3822.98 40566.9 
3.72e-07 8.03337 -0.0090161 1.63909e-10 101814 102080 101845 -402.659 -4544.54 -7694.46 17938.7 
3.8e-07 8.17937 -0.0102761 -2.1967e-10 101948 102136 101909 -377.596 1106.61 -3176.92 -1482.36 
3.88e-07 8.46014 -0.0345341 1.14446e-10 101920 102127 102029 -367.531 -15076.2 -5027.35 13519.8 
3.96e-07 8.55198 0.0140917 -1.42241e-10 101736 102172 102000 -396.005 -8207.84 -4946.56 7738.85 
4.04e-07 8.18958 0.0090235 -1.17371e-10 101796 102111 101861 -385.129 28818.4 -9707.25 -4932.61 
4.12e-07 8.54263 0.0431327 2.55478e-10 101895 102161 101850 -360.68 22451.8 -7369.06 18632 
4.2e-07 8.71467 -0.0767705 1.83368e-10 101908 102127 101886 -398.722 -8966.29 -6827.15 12237.9 
4.28e-07 8.6704 0.00811945 -9.35783e-11 102063 102139 101989 -385.173 18384.4 -15421.5 -29256 
4.36e-07 9.07647 0.0217825 4.19355e-11 102122 102173 101984 -404.805 -18364.9 -1397.07 -34767 
4.44e-07 9.33885 0.0339663 -3.32272e-11 102067 102094 101875 -354.484 -4140.53 -9039.43 -17443.8 
4.52e-07 9.47755 0.0479575 -2.36636e-10 101880 102147 101842 -400.673 5335.67 -6509.09 -50810.2 
4.6e-07 9.67145 -0.0443311 8.19182e-11 101775 102143 101775 -358.57 -29472.6 6958.58 -40730.6 
4.68e-07 9.75406 -0.0438069 9.35358e-11 101733 102135 101722 -387.025 -54278.6 -13879.9 -44422.7 
4.76e-07 9.90093 -0.0468891 -1.60523e-10 101745 102176 101712 -383.333 8419.48 9917.48 -7345.87 
4.84e-07 9.87215 -0.00722794 -7.96286e-11 101783 102070 101932 -382.441 20923.5 -13812.9 4751.21 
4.92e-07 9.8414 0.0645066 -1.29925e-10 101818 102170 101728 -378.28 1832.23 -10850.8 -44527.1 
5e-07 9.99228 0.0285969 -5.36634e-11 101974 102154 101918 -393.592 -24462 -732.454 -42267.9 
5.08e-07 9.96739 -0.0675318 -1.12444e-10 101853 102138 101828 -387.258 6378.08 1556.94 -26890.6 
5.16e-07 10.2208 0.0441353 -1.53748e-10 101981 102110 102034 -406.964 -7779.37 -16062 -31961.3 
5.24e-07 10.3534 0.0202188 8.6118e-11 102017 102164 102094 -377.186 22794.9 -4299.41 -14928.4 
5.32e-07 10.4349 -0.000867964 3.5571e-11 101824 102178 101759 -393.465 -15164 -738.319 -18488 
5.4e-07 10.5253 -0.0490994 2.2486e-11 101795 102116 101821 -372.296 -2172.33 -4926.33 -7929.91 
5.48e-07 10.5916 0.000869427 1.45128e-10 102034 102146 101890 -376.066 -45141.9 6040.37 -9388.81 
5.56e-07 10.9621 0.00403879 4.07728e-10 101906 102138 101835 -406.684 -28570.6 -12043.3 9885.17 
5.64e-07 11.1331 -0.0134084 6.97878e-11 101837 102144 101686 -400.262 -44363.4 3277.84 -2915.68 
5.72e-07 10.9833 0.0106691 -7.26618e-11 101995 102082 101776 -362.241 -15871.2 -8340.5 -4990.27 
5.8e-07 10.9241 0.0108024 -9.0514e-11 102004 102174 101819 -374.272 37474.9 -7043.56 17202.8 
5.88e-07 11.2775 -0.0446758 2.1818e-10 101999 102167 101846 -402.642 -1385.23 -4984.4 -14565 
5.96e-07 11.6699 -0.0257253 7.20296e-11 101974 102121 101867 -371.992 -41646.6 -109.751 -19476.3 
6.04e-07 11.6995 0.061778 4.75151e-10 102119 102106 101983 -384.473 -47170.5 574.674 22520.8 
6.12e-07 12.0121 0.0141652 -3.91997e-11 101970 102161 102008 -382.721 -57643 -9292.29 27629.2 
6.2e-07 12.1589 -0.0413444 9.14481e-11 101876 102135 101949 -374.521 -29397.8 -11558.4 4982.83 
6.28e-07 12.2135 -0.0277483 3.11893e-10 101815 102087 101821 -409.14 -66393.2 2310.25 -11641.5 
6.36e-07 12.2397 0.061953 1.21749e-10 102012 102189 102044 -358.985 -12184.4 -216.391 10459.8 
6.44e-07 12.6274 -0.0663186 2.46054e-10 101991 102132 101928 -388.228 -55425.4 -8812.46 21248.7 
6.52e-07 12.7329 0.029353 3.92348e-11 101966 102142 102004 -360.959 -37825.2 2031.56 23333.2 
6.6e-07 13.0718 0.00805626 2.77979e-10 102059 102131 102022 -395.011 -16149.6 -5523.52 -2356.7 
6.68e-07 13.1785 -0.0180763 -1.53157e-10 101892 102145 101857 -385.163 -40658.3 -13468.2 18655.8 
6.76e-07 13.1419 0.0489476 1.52827e-10 101885 102169 101886 -379.15 -12834.8 2047.05 53948.1 
6.84e-07 13.1983 -0.0372616 -1.84497e-12 101927 102107 101705 -397.14 -2801 -13417.3 -7945.48 
6.92e-07 13.3309 0.0344229 -2.75429e-10 101911 102123 101822 -395.554 -18050 4212.15 6897.58 
7e-07 13.6012 0.0103586 1.27597e-10 101978 102127 101709 -384.467 -20303.2 -2603.4 21353.8 
7.08e-07 14.1112 -0.0410134 2.9112e-10 101843 102143 101803 -375.816 -42463.4 -7934.61 -21502.2 
7.16e-07 14.1248 0.0241782 1.47e-11 101694 102144 101798 -351.872 -44825.7 1459.42 -635.952 
7.24e-07 14.6297 -0.0237333 -3.37539e-10 101860 102168 101858 -404.088 -63572.4 -9774.8 16828.7 
7.32e-07 14.6698 0.0125884 -9.75621e-11 101657 102126 101976 -379.235 -38198.3 7256.51 13058 
7.4e-07 14.8282 -0.011515 -5.60654e-11 101713 102099 101987 -361.495 -26001 1738.74 33979.1 
7.48e-07 14.5527 0.00753826 -3.53817e-11 101575 102140 101876 -416.005 -16493.6 -4961.79 4119.36 
7.56e-07 14.5041 -0.020494 -1.25016e-10 101744 102104 101794 -385.925 -9154.17 640.112 13569.5 
7.64e-07 14.5237 0.0569189 -1.31777e-10 101469 102185 101706 -359.344 5354.61 -8004.35 27998 
7.72e-07 15.0203 0.0121463 -8.79746e-11 101624 102128 101790 -394.806 -27505.2 -2020.88 33699.6 
7.8e-07 14.9567 -0.0694726 -7.43463e-11 101785 102116 101831 -382.406 -7035.16 -2697.22 33061.2 
7.88e-07 15.0023 0.0467974 3.19829e-10 101822 102182 101946 -366.19 -16674.2 1338.76 -9001.87 
7.96e-07 15.3024 -0.0189166 -1.55889e-10 101687 102136 101823 -406.386 -28549.6 -3646.08 23996 
8.04e-07 15.5297 0.0705647 3.65269e-10 101725 102105 101856 -372.129 16570.9 -6376.26 61020.2 
8.12e-07 15.3627 -0.0490047 -4.04979e-11 101716 102169 101884 -370.56 10049.6 -2199.71 47888.1 
8.2e-07 15.6498 -0.00571965 1.53143e-10 101719 102123 101805 -398.373 17699 -10135.2 -3626.81 
8.28e-07 15.4929 0.0379538 1.74324e-10 101763 102121 101801 -369.826 46490.5 1198.98 -23567.6 
8.36e-07 15.7198 -0.0260782 2.56674e-10 101783 102177 101952 -413.377 12047.9 -3021.32 -24804.3 
8.44e-07 15.9338 -0.013828 6.99468e-11 101862 102117 101874 -353.61 21292.8 -10329.4 -8746.37 
8.52e-07 15.8579 0.0185786 -2.1361e-10 101771 102129 101797 -412.531 5843.11 -3857.01 28965.9 
8.6e-07 16.2443 0.0344868 -1.18e-10 101765 102132 101932 -366.941 -15035.4 7316.72 -14953.4 
8.68e-07 16.1819 -0.0153118 1.6539e-10 101952 102163 101994 -382.592 -16276.4 -9557.82 18685.4 
8.76e-07 16.215 0.0660236 -7.24245e-11 101837 102083 101705 -381.83 -26245.3 -238.557 15061.6 
8.84e-07 16.3562 -0.0642383 -2.75259e-10 101908 102135 101705 -377.896 11829.6 -18591.9 -6216.42 
8.92e-07 16.5895 -0.00123903 -3.55066e-14 101723 102163 101613 -393.503 -11046.6 6691.89 23706.1 
9e-07 16.6915 -0.00402579 -2.71167e-10 101703 102111 101810 -370.241 -31742.8 9232.64 -19668.9 
9.08e-07 17.0347 0.0125421 3.66439e-10 101757 102146 101982 -363.934 -29156.6 -9402.44 24275.1 
9.16e-07 17.4118 0.0346556 -1.50971e-10 101921 102143 101986 -376.926 -36029.6 148.551 13582.7 
9.24e-07 17.3465 -0.0257638 -1.95253e-10 101677 102157 102136 -397.231 10129.9 -12827.8 1917.09 
9.32e-07 17.6491 0.045508 -1.18638e-10 101930 102112 102100 -372.392 -4866.34 10203.5 40983.3 
9.4e-07 17.7947 -0.0179917 5.6082e-11 101853 102162 102022 -371.655 -34048.4 -310.621 45920.8 
9.48e-07 18.0236 -0.0279619 -1.19976e-10 101753 102134 101937 -362.1 -54031 -3382.35 42051.7 
9.56e-07 18.0972 0.037895 2.88847e-11 101843 102141 102038 -394.089 7463.01 -6977.04 39419.5 
9.64e-07 18.1991 -0.0260814 -7.91413e-11 101931 102140 102003 -377.68 -30671.3 -7271.18 42232.6 
9.72e-07 18.4043 -0.0305403 -2.21245e-11 102002 102134 102065 -422.582 -33854.8 3041.92 49694.1 
9.8e-07 18.5488 0.0470857 1.05542e-10 102104 102103 102089 -367.274 -17312.6 -1331.31 5933.73 
9.88e-07 18.451 0.00627693 -3.012e-10 102056 102225 101921 -378.56 -14318.3 -4524.9 -11323.3 
9.96e-07 18.9394 -0.0309842 1.78529e-10 103137 102092 103326 -381.798 -24837.6 -9049.95 22123.5 
