ITEM: TIMESTEP
500000
ITEM: NUMBER OF CELLS
125
ITEM: BOX BOUNDS pp ss pp
0 0.0001
0 1e-06
0 0.0001
ITEM: CELLS yc f_vel[1] f_vel[2] f_vel[3] f_mom[1] f_mom[2] f_mom[3] f_mom[4] f_q[1] f_q[2] f_q[3] 
4e-09 1.17219 -0.162872 4.71039e-10 102528 102291 102738 -368.47 11893.3 18776.9 -54801.3 
1.2e-08 1.32531 -0.0144136 -4.31721e-10 102120 102212 102217 -415.273 -23727.4 -1051.43 15667.5 
2e-08 1.42308 -0.017678 1.65887e-10 102163 102377 102293 -349.108 -1520.38 7401.89 -176.505 
2.8e-08 1.79344 0.00938708 2.81216e-10 102029 102249 102262 -385.673 -772.452 -5614.71 -18869.8 
3.6e-08 2.12546 -0.0379126 1.13217e-10 102290 102275 102289 -390.181 -14873.2 -11992 -9956.16 
4.4e-08 2.33398 0.0133675 -1.17452e-10 102255 102257 102200 -383.545 -12033.5 -5891.98 -5232.78 
5.2e-08 2.14653 0.0397787 2.50988e-11 102078 102305 102122 -368.543 8955.81 -12403.4 -21979.9 
6e-08 2.27972 -0.0178829 -7.52004e-11 102143 102243 102230 -388.418 3336.98 -4006.06 1974.21 
6.8e-08 2.542 0.0191944 4.99169e-10 102135 102273 102133 -387.341 7905.84 -4674.48 -21130.2 
7.6e-08 2.84023 0.00512302 -9.85866e-11 102125 102280 102129 -394.042 -26711 -7961.54 18195.4 
8.4e-08 2.79923 0.00880295 4.10356e-10 102008 102269 102222 -386.613 5957.11 -10388.8 22568.4 
9.2e-08 3.03769 0.0176419 -1.61595e-10 102096 102277 102148 -375.904 6185.5 -1640.23 8696.1 
1e-07 3.24693 -0.0446678 1.99514e-10 102231 102281 102201 -394.437 -20173.7 -7526.04 -11767.3 
1.08e-07 3.18353 0.0341474 -5.16996e-11 102032 102205 102027 -392.939 43988.9 -17286.3 9637.3 
1.16e-07 3.58716 -0.0191369 1.52429e-10 102116 102294 102179 -380.037 -1747.36 4737.52 1046.01 
1.24e-07 3.40414 0.00777568 -3.76143e-10 102128 102266 102264 -390.42 1727.68 -10384 -16483.5 
1.32e-07 3.71634 -0.0406778 -9.83656e-11 102211 102309 102276 -372.24 -2783.36 -8157.21 -14234.5 
1.4e-07 3.75014 0.0613042 3.1556e-10 102114 102281 102143 -411.152 -23634.3 8391.26 11483 
1.48e-07 3.926 -0.0284581 -2.88676e-10 102192 102231 102215 -364.837 -15185.5 -16769.9 66.1756 
1.56e-07 4.1566 -0.037362 4.56398e-12 102008 102308 101999 -397.271 18833.9 -6918.68 4276.35 
1.64e-07 4.20085 0.0334471 1.21381e-10 102149 102254 102100 -389.183 14570.6 -17699.6 -9303.04 
1.72e-07 4.37847 0.0579301 8.8613e-11 102160 102278 102238 -372.888 -22588.7 -1718.12 16564.7 
1.8e-07 4.29641 -0.0110541 -1.65554e-10 102148 102279 102444 -388.639 16632.1 -12166 52584.1 
1.88e-07 4.5579 -0.010753 5.52342e-11 102285 102257 102240 -400.715 -10114.7 851.336 -11079 
1.96e-07 4.72559 0.000195922 -3.65363e-10 102056 102278 102160 -356.657 -34917.3 -11751.1 -4066.18 
2.04e-07 4.63184 0.0147376 1.42131e-10 102107 102278 102090 -419.76 -17314.6 -6080.32 4136.47 
2.12e-07 4.92705 -0.05227 3.19991e-10 102133 102282 102044 -370.474 7607.14 -8622.35 15604 
2.2e-07 5.05208 -0.0231392 3.60852e-10 102336 102269 102216 -393.795 -17332.1 -5365.29 9531.81 
2.28e-07 5.07389 0.00844842 -1.24891e-10 102145 102286 102101 -364.013 -27135.9 -7976.31 21897.6 
2.36e-07 5.56033 0.0323442 1.21443e-10 101929 102303 101872 -419.753 -59744.6 605.453 -1122.81 
2.44e-07 5.60615 -0.00910409 2.50756e-10 101981 102281 101897 -379.636 -44467.3 -18478.5 -207.095 
2.52e-07 5.80586 0.0413337 1.23814e-10 102103 102203 101950 -352.786 -33990.5 -9277.79 -14276.6 
2.6e-07 5.84621 0.0142183 1.19786e-10 101875 102266 101873 -381.501 -36663.3 1041.39 -26358.4 
2.68e-07 6.00835 0.00853796 2.37082e-10 102051 102289 102009 -386.428 -11477.5 -3200.02 -16620.8 
2.76e-07 6.30803 -0.0243473 1.28499e-10 101892 102298 101837 -369.534 -14666.3 -3937.83 -9806.24 
2.84e-07 6.38971 -0.0394185 -2.17255e-10 102007 102196 102119 -379.37 -42889.1 -15588.5 -20984.9 
2.92e-07 6.44151 0.0474041 -2.97643e-10 102116 102310 102229 -396.336 -60182.8 4142.59 -58635.3 
3e-07 6.76514 -0.0148443 2.54962e-10 102100 102271 102044 -383.735 -54783.6 -8512.06 -30727.8 
3.08e-07 6.72423 -0.017985 -1.78821e-10 102225 102305 102176 -370.09 -22793.4 -476.674 -10832 
3.16e-07 6.52134 0.0677841 1.3065e-10 102240 102236 102076 -402.962 12857.3 -6882.17 -52010.1 
3.24e-07 6.68215 -0.0510235 -5.47428e-11 102032 102263 102168 -390.257 33562.3 -6523.04 17854.1 
3.32e-07 7.01071 -0.0109139 2.75516e-10 101982 102327 102174 -356.175 1228.41 2578.91 1263 
3.4e-07 7.23552 -0.0405138 -2.13649e-10 101999 102238 101996 -400.699 -14424.5 -10925.4 -42890 
3.48e-07 7.25603 -0.0176143 2.04286e-10 102112 102291 101981 -380.717 -3830.94 -7209.39 -351.929 
3.56e-07 7.29634 -0.00904836 2.57112e-10 101987 102249 102044 -401.804 3234.97 2560.28 17613.3 
3.64e-07 7.44066 -0.00585319 -3.18389e-10 102082 102293 102095 -392.511 32625.8 -14390.5 11656.8 
3.72e-07 7.51601 0.00726063 -1.28128e-10 102057 102297 102222 -382.428 33445.2 -5336.95 9621.57 
3.8e-07 7.61076 0.0393747 -1.47677e-10 102269 102266 102149 -365.42 9396.49 -800.871 5481.28 
3.88e-07 7.88877 -0.0258626 -1.51858e-10 102235 102295 101927 -394.725 21573.3 956.208 14932.5 
3.96e-07 8.05525 -0.0343575 -3.43749e-11 102117 102223 102282 -369.985 5735.51 -6793.92 28124.5 
4.04e-07 8.34559 -0.0116858 6.0552e-11 102106 102291 101974 -396.28 -2353.88 -5066.14 22254.8 
4.12e-07 8.46756 0.0627302 -7.091e-11 102239 102277 102118 -368.903 9896.98 448.428 18188.8 
4.2e-07 8.37858 0.00688474 -8.74092e-11 102116 102250 102174 -393.696 21383.5 -9910.25 45192.2 
4.28e-07 8.34446 -0.0267947 1.4589e-11 102238 102276 102072 -370.332 37460.8 -10539.9 52233.2 
4.36e-07 8.42567 -0.00761815 -2.18869e-10 102233 102291 102131 -375.079 19055.1 -2167.93 3288.23 
4.44e-07 8.77998 -0.0656865 2.74477e-10 102232 102292 102174 -382.436 17932.1 10642.7 3447.76 
4.52e-07 8.96445 0.030858 1.87584e-10 102130 102255 102115 -402.677 25540.2 -9208.36 2900.89 
4.6e-07 9.03875 -0.0391382 1.48962e-11 102161 102286 102036 -362.824 64037.5 -9154.8 32714.9 
4.68e-07 9.30429 0.012083 2.10333e-10 102156 102269 102173 -374.72 15842.4 -5594.28 46618 
4.76e-07 9.69825 -0.0376136 -3.0804e-10 102282 102254 102098 -388.202 4445.67 -11089.5 6934.37 
4.84e-07 9.54708 0.0418362 9.36008e-11 102351 102289 102125 -368.73 20965.9 -12008.9 15901.3 
4.92e-07 9.80379 0.0195882 -9.59719e-12 102184 102234 102047 -416.441 23764.3 -2482.06 23289.8 
5e-07 9.64621 -0.0104054 8.91638e-11 102110 102325 101951 -369.417 9609.07 -7440.3 33677 
5.08e-07 9.84527 -0.0427798 1.18063e-10 101943 102267 101919 -412.211 1054.12 76.244 50940.8 
5.16e-07 10.1139 -0.00224021 -7.93414e-11 102086 102247 102027 -397.658 31121.4 -10553.8 22384.3 
5.24e-07 10.1976 -0.000875436 -1.65636e-10 101995 102279 102097 -370.362 681.912 -865.33 -2919.08 
5.32e-07 10.4836 -0.00225076 4.56272e-10 102125 102281 102119 -393.958 -4578.1 -11331.4 -8492.62 
5.4e-07 10.4363 0.017987 1.17676e-10 101969 102259 102050 -374.259 -4629.54 -6961.06 -8984.07 
5.48e-07 10.5701 -0.0210194 -1.15744e-10 102118 102267 101837 -396.774 4533.98 4295.92 -22313.2 
5.56e-07 10.7405 -0.0176342 3.18857e-10 102195 102320 101980 -380.539 -13464.6 -7165.01 -9831.87 
5.64e-07 10.6489 -0.0233789 -6.52884e-11 102348 102225 102114 -377.907 -3698.6 -4234.16 -25136.3 
5.72e-07 10.7268 0.0375287 -3.53137e-11 102228 102256 101915 -382.146 1155.99 4927.59 -7096.99 
5.8e-07 10.806 -0.0606485 4.70156e-12 102222 102263 101870 -425.94 36562.3 -10626.4 35928 
5.88e-07 11.2253 -0.00461775 1.22431e-10 102229 102297 102127 -363.017 21670.4 -5925.08 31191.2 
5.96e-07 11.5274 0.0539919 -1.27702e-10 102226 102229 101963 -407.353 -7100.43 -3194.2 -26047.8 
6.04e-07 11.6837 0.00914585 1.08559e-10 102254 102354 102207 -366.654 19793.9 -1919.32 56119 
6.12e-07 11.6736 -0.040845 -3.30529e-10 102070 102217 102101 -361.573 332.92 -676.289 50970.3 
6.2e-07 11.4854 -0.0465173 -2.48671e-10 102110 102274 102144 -393.544 49498.9 -2638.48 13983.4 
6.28e-07 11.8648 0.0698392 4.49503e-10 102061 102274 102097 -404.711 18500.6 -10715.9 50221.9 
6.36e-07 11.9609 -0.0855877 2.71122e-10 102161 102251 102247 -391.331 42119.9 9110.61 14549 
6.44e-07 12.2278 -0.00132929 -2.17525e-11 102129 102280 102215 -383.295 18494.4 -12150.2 -8914.06 
6.52e-07 12.2724 -0.0339208 -1.17869e-10 102112 102267 102046 -387.495 -13657.7 3688.16 43359.7 
6.6e-07 12.4324 -0.0259742 2.62655e-10 102121 102245 102051 -365.526 -2984.14 -3299.84 18954.6 
6.68e-07 12.4429 -0.00787645 3.90581e-10 102281 102274 102137 -395.723 32285.5 6396.76 1355.08 
6.76e-07 12.8085 0.0230041 -4.30733e-10 102274 102297 102083 -400.671 8990.78 -14076.4 26812 
6.84e-07 12.7964 0.0109126 -1.46611e-10 102105 102299 102242 -393.072 24668 -6416.31 5779.42 
6.92e-07 13.1932 -0.0332624 2.63008e-10 102125 102270 102214 -361.204 27421.2 -4506.68 -13454.7 
7e-07 13.1647 0.0148123 9.98155e-11 102027 102276 102109 -384.112 51408.3 919.345 -22367.2 
7.08e-07 13.2192 0.0443899 5.76952e-11 101895 102239 101958 -420.112 892.303 -7246.54 -25123.1 
7.16e-07 13.4465 -0.0651929 -1.40052e-10 102127 102295 102044 -376.786 -1884.54 -423.916 -32965 
7.24e-07 13.5736 0.0282702 2.93439e-10 102032 102245 102083 -389.55 31241.3 -3246.36 -1192.1 
7.32e-07 13.7023 -0.0381285 -6.83217e-11 101949 102241 102183 -386.92 -7399.97 -2397.91 509.876 
7.4e-07 13.8528 0.02058 -4.57814e-11 102080 102379 102033 -382.537 -20243.7 -5005.59 26921.8 
7.48e-07 14.1874 0.000535832 -2.00245e-11 102018 102227 102038 -360.95 -9894.31 4023.5 12650.6 
7.56e-07 14.4757 -0.0349368 3.01336e-10 102108 102261 102257 -408.488 -25547.6 -1483.41 29379.9 
7.64e-07 14.5631 0.0428498 -1.24226e-10 102112 102270 102152 -403.396 -32324.1 -17638.2 34323.5 
7.72e-07 14.4241 0.00416772 2.40468e-10 102021 102344 102066 -390.071 -14945.4 4367.47 25029.6 
7.8e-07 14.7803 -0.0536701 -8.2465e-11 102013 102232 102141 -363.561 -16801.1 -6545.83 16333.2 
7.88e-07 14.6667 -0.0107603 1.55211e-10 102007 102268 102019 -394.279 17727.2 -2653.54 26513.4 
7.96e-07 14.6087 0.0120472 -2.02458e-10 102217 102309 102090 -379.848 6340.68 -8647.23 41201.1 
8.04e-07 14.9011 -0.0099357 -2.64213e-11 102163 102251 102062 -378.541 -4635.67 -10271.1 39751.4 
8.12e-07 15.2322 0.052565 1.15523e-10 102106 102259 102122 -358.668 5650.96 6592.46 34879.3 
8.2e-07 15.098 -0.0237976 1.66332e-10 102004 102285 102226 -415.658 37158.9 -3366.55 -16252.4 
8.28e-07 15.4573 0.0110976 1.54073e-11 102139 102292 102209 -374.309 43070.7 -6078.5 26601 
8.36e-07 15.4599 -0.0709518 -7.16036e-11 102080 102248 102043 -379.536 37164.1 3115.09 26260.8 
8.44e-07 15.4468 0.00733711 -2.06765e-10 102132 102243 102011 -386.762 14994.7 2442.58 17660.5 
8.52e-07 15.5885 -0.02458 1.33819e-10 102344 102276 102166 -411.06 14286.1 -1043.24 11543.5 
8.6e-07 16.1547 0.0348267 -9.06083e-11 102267 102289 102168 -377.062 -32095.4 -18067.7 7406.04 
8.68e-07 15.9641 0.00747341 2.01649e-10 102214 102276 102302 -377.884 -19892.9 1095.17 15473.2 
8.76e-07 15.9387 -0.00769263 3.78511e-10 102191 102290 102216 -382.376 25732.7 -5332.09 -17988.7 
8.84e-07 16.2584 -0.0523361 3.24622e-10 102108 102258 102171 -394.936 14262.4 3916.92 -19597.8 
8.92e-07 16.4388 0.0436381 3.50295e-11 102061 102268 102150 -354.522 29169.5 19.5526 -26018.4 
9e-07 16.3943 -0.00955759 1.90994e-10 102198 102325 102380 -407.888 15409.8 -6438.65 -26575 
9.08e-07 16.7779 -0.0219527 7.71156e-12 102191 102212 102242 -386.491 26734.7 -1974.29 -35426.2 
9.16e-07 16.9041 0.0156257 1.05642e-10 102077 102294 102179 -413.348 -6700.77 -6227.42 -9680.26 
9.24e-07 17.1835 -0.0157269 -8.9478e-11 102122 102300 102158 -392.559 -8521.73 8600.64 -23961.2 
9.32e-07 17.2568 -0.0305729 1.14819e-11 102152 102221 102078 -364.404 -18479.7 -14293 -25289.2 
9.4e-07 17.479 0.00341448 2.87133e-10 102169 102310 101997 -422.766 -3654.45 -1322.72 -40843 
9.48e-07 17.8534 0.0496692 2.54362e-10 102132 102253 102066 -398.24 -46103.1 -10370.5 -31530.5 
9.56e-07 17.5914 0.069549 -3.67978e-11 102148 102274 102013 -361.022 10160.3 -14855.1 -7752.81 
9.64e-07 17.9167 -0.0401997 3.72646e-10 102188 102308 102235 -399.651 6555.53 -8672.77 1030.87 
9.72e-07 18.2643 -0.0169952 3.05555e-10 102212 102232 102129 -398.009 -34485.7 8011.29 9100.7 
9.8e-07 18.2258 0.0429382 2.34316e-11 102146 102293 102094 -381.396 -43077.6 -10371.9 18563.5 
9.88e-07 18.434 0.0246776 2.61644e-10 102283 102289 102292 -387.752 -63207.5 1800.31 605.178 
9.96e-07 18.6807 0.154053 3.56081e-10 102803 102264 102692 -386.034 -37791.4 -33125.2 -33937.5 
