ITEM: TIMESTEP
500000
ITEM: NUMBER OF CELLS
125
ITEM: BOX BOUNDS pp ss pp
0 0.0001
0 1e-06
0 0.0001
ITEM: CELLS yc f_vel[1] f_vel[2] f_vel[3] f_mom[1] f_mom[2] f_mom[3] f_mom[4] f_q[1] f_q[2] f_q[3] 
4e-09 0.962797 0.0126619 2.53717e-10 103799 102177 104017 -410.574 10872.8 790.049 21621.3 
1.2e-08 1.08881 -0.0305175 -2.0439e-10 102095 102188 102270 -380.178 53280.6 -10227.8 4278.91 
2e-08 1.28566 0.0235647 5.5483e-11 102144 102119 102244 -379.19 34818.6 -12963.5 -7577.86 
2.8e-08 1.32127 0.0192485 1.86713e-10 101954 102188 102032 -384.205 27047.8 -8704.37 19474.2 
3.6e-08 1.58511 -0.0267062 1.10143e-10 101996 102161 102101 -420.709 22926.4 -8898.74 19801.2 
4.4e-08 2.10747 -0.00382369 4.23047e-10 102113 102192 102197 -399.163 16381.3 984.181 -2485.32 
5.2e-08 1.97189 -0.028177 -2.06247e-11 101947 102199 101979 -367.579 5148.07 -14596 18413.8 
6e-08 2.00173 0.0443041 2.09244e-12 101949 102170 102156 -411.975 37962.4 1981.27 40123.8 
6.8e-08 2.2149 0.0245927 8.25642e-11 101783 102154 101901 -398.86 22083.9 -22628.8 41487.8 
7.6e-08 2.24863 -0.0112369 2.3004e-10 101860 102153 101852 -381.302 20160 -11539.3 -20694.6 
8.4e-08 2.57145 -0.0405732 8.26253e-11 101673 102174 101884 -377.294 7611.94 -2497.57 1659.87 
9.2e-08 2.60475 0.0222481 5.09416e-11 101851 102164 102054 -405.125 -4100.53 -6047.01 7182.7 
1e-07 3.06582 0.0109272 -2.18002e-11 101940 102192 101989 -383.527 -22761.5 -14325.4 12141.7 
1.08e-07 3.18859 -0.0761356 -4.18438e-12 101995 102172 102007 -412.424 14672.2 -6940.27 -10612.4 
1.16e-07 3.42419 0.0505248 5.88951e-11 101641 102127 101894 -381.803 -15985.6 5994.91 -49608.1 
1.24e-07 3.49483 -0.0312698 1.58197e-10 101984 102209 101917 -394.179 -12097.1 -22117.3 -36842.3 
1.32e-07 3.92795 -0.00419754 -2.61146e-10 101782 102129 101966 -369.729 -6310.68 -5177.26 -12237 
1.4e-07 4.0917 0.0171684 -4.63984e-10 101969 102164 102006 -415.09 -17255.7 -7589.23 -23042.8 
1.48e-07 4.22067 0.0310254 4.36893e-11 101956 102149 102043 -391.612 -21319 -5915.6 -28261.6 
1.56e-07 4.43946 -0.0401436 3.00631e-10 101896 102190 101861 -361.325 -25598.9 -8118.37 2650.75 
1.64e-07 4.60835 -0.0327779 -2.37311e-10 101648 102144 101765 -394.441 -65984.6 -2420.54 -3791.23 
1.72e-07 4.98224 0.0695701 2.37358e-10 101781 102146 101810 -392.494 -42982.9 988.191 -4100.07 
1.8e-07 4.56885 -0.0507832 2.7187e-10 101829 102183 101926 -358.942 -31905 -19777.4 -35567.1 
1.88e-07 4.65278 0.00192886 -2.40156e-10 101830 102120 101865 -412.383 -28927.4 -1253.34 -9332.42 
1.96e-07 4.72803 0.0273621 -2.79556e-11 101930 102238 101811 -401.249 -12578.5 -7248.47 11463.4 
2.04e-07 4.94419 -0.0320085 3.08487e-10 101940 102147 101782 -396.082 -17676.1 -1437.14 -26794.4 
2.12e-07 4.9859 -0.00515137 5.03481e-10 101869 102193 101884 -406.419 -16152.7 -7619.44 -9565.12 
2.2e-07 5.49949 -0.0270753 1.10011e-10 101660 102180 101647 -383.327 -39670 -23942.9 -34104 
2.28e-07 5.53201 0.046237 -2.69581e-10 102064 102124 101884 -378.364 25658.5 438.897 3779.61 
2.36e-07 5.54836 -0.0627708 -3.18986e-10 102092 102181 101960 -396.667 24172.5 -14955 -7444.85 
2.44e-07 5.7613 0.0175089 8.55783e-11 102068 102140 101857 -416.166 33217 -2194.88 24578.6 
2.52e-07 5.91911 0.0242388 -1.98789e-11 101870 102195 101854 -381.267 27412.3 -15922.3 17230.2 
2.6e-07 5.92672 0.0274156 -1.60997e-11 101935 102114 101924 -390.425 38164.5 2627.5 41425 
2.68e-07 6.03649 -0.0175311 -3.69318e-10 101988 102156 101844 -382.206 15188.7 -9656.82 67844.7 
2.76e-07 6.44826 -0.0576559 1.3908e-10 101919 102194 101848 -372.475 15626.5 -4152.87 35087.2 
2.84e-07 6.45689 0.0376035 1.64639e-10 102048 102138 101992 -410.174 51431 -8923.26 34529.8 
2.92e-07 6.75549 -0.0285395 -4.07828e-10 101926 102197 101997 -390.941 -2247.7 -3576.79 22636.5 
3e-07 6.74541 -0.0325864 -4.48609e-12 101956 102145 102163 -363.848 22388.5 -13997.2 13365.4 
3.08e-07 6.96716 0.0647094 2.89966e-10 102006 102158 102191 -402.653 36169 905.172 41726.3 
3.16e-07 6.91233 -0.0233745 -2.84642e-10 102022 102192 102063 -394.343 43646.8 -10035.2 37088.4 
3.24e-07 7.07873 0.0283424 -5.25551e-11 101968 102151 101913 -374.976 -6573.77 -13389.7 35936.3 
3.32e-07 7.1923 -0.0184875 -7.69361e-11 102009 102127 101851 -401.797 1409.84 -10227.2 26852.8 
3.4e-07 7.41546 0.0290901 2.13104e-10 101895 102190 101865 -381.239 -24392 4367.95 1057.56 
3.48e-07 7.53615 -0.079887 6.89138e-12 101825 102188 101876 -389.604 979.446 -5692.74 -21919.3 
3.56e-07 7.60515 -0.00981282 -2.10654e-10 101824 102142 102081 -388.759 -7845.79 -10009.1 21575.2 
3.64e-07 7.72002 0.0191112 -1.84092e-10 101903 102125 101928 -395.512 -12427.4 -3009.3 16688.2 
3.72e-07 7.75839 0.0190154 -1.30261e-10 101747 102187 101881 -410.043 -13860 -4728.77 27895.6 
3.8e-07 8.11837 0.0388476 1.41378e-10 101853 102186 101866 -388.774 -51283.8 -5904.06 7271.34 
3.88e-07 8.38919 -0.0489794 1.61474e-10 101896 102146 102025 -379.382 -14193.9 -1545.38 20667.3 
3.96e-07 8.46803 0.00258138 -5.83567e-11 101767 102176 101906 -389.228 -41008.5 -11661.5 48434.4 
4.04e-07 8.51778 -0.0215737 9.66467e-11 101639 102148 101860 -378.767 -2210.69 -213.139 37821 
4.12e-07 8.99666 -0.0121434 -2.13652e-11 101897 102189 101902 -398.078 6572.69 -20887.3 37281.9 
4.2e-07 9.24214 0.0277225 -6.88448e-11 101903 102211 101896 -384.187 -2381.43 1247.76 1320.07 
4.28e-07 9.10859 -0.0371904 -2.34631e-10 101761 102134 101806 -380.76 200.266 -10099.6 15796.7 
4.36e-07 9.46888 -0.0104197 -2.68348e-10 101777 102128 101867 -399.678 -18828 -6056.8 -10637.1 
4.44e-07 9.84849 0.00782425 2.18247e-10 101884 102214 102011 -386.161 -30126.3 562.662 16201.4 
4.52e-07 9.74676 -0.00181981 2.58023e-10 101876 102111 101884 -399.24 -44197.6 -15599.5 -19249.3 
4.6e-07 9.85352 0.07061 -2.71064e-11 102078 102198 101985 -354.508 -22037.2 1916.81 -6641.06 
4.68e-07 9.84618 -0.00521005 -3.15622e-10 102025 102182 102045 -392.781 -14400.6 -12720.9 4914.38 
4.76e-07 10.0296 -0.0207213 7.25846e-11 101700 102094 101836 -403.022 19893 -6311.75 1696.38 
4.84e-07 10.0345 0.0193374 -4.22598e-10 102005 102201 101930 -388.215 54614.5 -1612.8 -1998.58 
4.92e-07 9.88747 -0.0734721 -7.19633e-11 101891 102170 101958 -400.448 21250.5 -10820 45162.5 
5e-07 10.3503 0.0410141 1.51612e-10 101929 102168 101819 -422.067 2580.36 -1580.88 5142.8 
5.08e-07 10.2098 -0.0252407 -2.92295e-10 102105 102176 102015 -384.639 21790.8 -498.373 13794.7 
5.16e-07 10.3511 -0.0208415 9.50011e-11 101957 102168 101814 -391.833 -35857.9 -15304.8 25777.3 
5.24e-07 10.6252 0.00455234 -4.17512e-10 101904 102152 101856 -403.833 -50925.9 -5759.87 10157.7 
5.32e-07 10.6924 -0.0476157 1.22401e-10 102020 102121 101881 -387.575 -8353.44 -2893.89 -25221.1 
5.4e-07 10.866 0.0685144 2.05674e-10 101755 102163 101770 -380.365 25254.4 -3915.13 -22799.6 
5.48e-07 11.0228 -0.0086979 1.12786e-11 101957 102178 101870 -395.383 9151.93 -12426.7 -10940.3 
5.56e-07 11.2058 0.043628 -1.08399e-10 101724 102216 101756 -403.735 20347.6 -4752.5 -21065.6 
5.64e-07 11.2431 -0.0311281 -1.9739e-10 102013 102155 101834 -387.549 -4440.27 -3385.98 -54216.1 
5.72e-07 11.3856 -0.00935653 7.52584e-12 102040 102164 101715 -394.921 27393.7 -8795.56 -33884.6 
5.8e-07 11.3323 0.0611607 -5.74899e-11 102041 102177 101827 -401.669 55265.4 -1306.11 -18113.5 
5.88e-07 11.5781 -0.0111774 1.0886e-10 101767 102130 101689 -370.187 27389 -2454.93 -14292.1 
5.96e-07 11.3472 -0.0618961 -2.32085e-10 101837 102199 101762 -404.911 18292.4 -24438.8 3094.2 
6.04e-07 11.6538 -0.0111588 1.545e-10 101721 102118 101775 -395.029 23000.7 10841.2 43406.7 
6.12e-07 12.1914 -0.0222165 1.30104e-11 101670 102218 101753 -397.114 -28935.9 -6153.08 949.651 
6.2e-07 12.3695 0.055562 6.29738e-11 101879 102126 101963 -395.357 -28254.2 1320.29 -8783.91 
6.28e-07 12.3655 -0.0149967 -2.54892e-10 101892 102175 101878 -393.877 -1630.05 -10401 -5799.08 
6.36e-07 12.5384 -0.0330306 2.90711e-10 101915 102191 101927 -391.783 -14581.2 6505.65 -27813.1 
6.44e-07 12.8545 0.0356508 4.2246e-10 101849 102106 101801 -386.523 -10503.9 -19463.5 5939.02 
6.52e-07 13.0136 0.0474747 9.2935e-11 101833 102221 101935 -389.977 7746.07 14123.8 -18751.2 
6.6e-07 13.4077 -0.103332 7.0147e-11 101565 102113 101600 -393.346 -15962.1 -12553.6 -7398.33 
6.68e-07 13.3781 0.0511284 -4.23219e-12 101697 102143 101586 -380.907 -1794.81 -470.128 7136.83 
6.76e-07 13.6035 -0.0278343 8.32263e-11 101757 102182 101836 -412.698 1138.42 -7873.93 45786.3 
6.84e-07 13.9704 0.0272666 -1.86823e-10 101684 102182 101822 -386.418 5969.49 -8417.51 21456.4 
6.92e-07 14.0087 -0.0183261 3.45021e-11 101738 102156 101767 -370.535 5112.47 -936.672 46810.5 
7e-07 13.9676 -0.015546 2.84363e-10 101616 102187 102010 -379.214 42197.3 -12518.4 27784.1 
7.08e-07 14.0074 -0.087033 -1.71454e-10 101681 102136 101949 -395.5 12595.5 8136.77 33792.6 
7.16e-07 14.2104 0.0757588 9.29239e-11 101728 102152 101936 -396.396 13106.5 -5125.38 -8959.62 
7.24e-07 14.5237 0.02725 -2.80298e-10 101775 102193 101921 -425.364 9243.61 -7861.8 3559.52 
7.32e-07 14.5668 -0.00671657 -3.51673e-10 101742 102172 101835 -390.627 -11586.5 -9229.99 10995.5 
7.4e-07 14.5654 -0.0426625 3.36722e-10 101618 102144 102011 -378.036 -30504.1 3523.64 -19333.3 
7.48e-07 14.8447 0.0291628 -3.3979e-10 101741 102216 101996 -390.476 -46531.4 -7259.05 -39476.9 
7.56e-07 14.8877 0.0085015 -2.22252e-10 101801 102139 101950 -399.477 -9245.14 -2712.42 6543.86 
7.64e-07 15.0579 -0.0425571 1.38299e-10 102000 102167 102044 -387.364 -32367 6775.76 -19238 
7.72e-07 14.7691 0.0292775 -2.96516e-10 101729 102107 101910 -383.383 -35094.1 -11278.7 18736.6 
7.8e-07 14.9882 0.00275905 1.74724e-10 101809 102248 102014 -373.982 -20618.2 -5643.04 339.426 
7.88e-07 15.2773 -0.0166492 3.85377e-10 101919 102132 101889 -395.027 -40323 -2191.38 23420.8 
7.96e-07 15.5025 -0.00735525 -3.65899e-11 101877 102195 101947 -400.233 -31473.3 -10710.4 10951.2 
8.04e-07 15.3229 0.00793911 -3.28785e-10 101917 102114 101993 -395.099 -37476.3 7859.68 27782.1 
8.12e-07 15.6127 -0.0293775 4.11576e-10 101848 102193 101768 -406.627 -29622.1 -9973.65 32358 
8.2e-07 15.8328 -0.0428153 1.49815e-10 101823 102122 101683 -384.719 5307.31 -10258.5 10506.4 
8.28e-07 16.0148 0.0476722 -1.82004e-10 101820 102250 101875 -372.375 24503.6 9176.3 -19170.1 
8.36e-07 15.9657 -0.00714853 -2.8861e-10 101807 102086 101777 -399.639 -22391.6 -12965.3 30042.9 
8.44e-07 15.9163 0.0431682 1.14268e-10 101746 102220 101805 -402.702 30539.2 8478.87 18224.8 
8.52e-07 16.1244 -0.0471919 1.18833e-10 101862 102156 101910 -389.539 25720.3 -17109.6 -19315.8 
8.6e-07 16.1593 0.0126589 -1.96931e-12 101852 102181 101942 -348.517 39024.1 5605.57 -12265.2 
8.68e-07 16.5712 -0.0383081 2.76678e-10 101723 102137 101802 -398.237 -11321.2 -13380.3 8988.71 
8.76e-07 16.5595 0.0266947 6.51801e-11 101879 102170 101912 -407.458 33925.6 -15.2852 11354.5 
8.84e-07 16.8135 0.0325889 1.50791e-12 101656 102200 101856 -379.864 21859.9 -13681.6 7249.67 
8.92e-07 17.1278 -0.0424692 -1.52794e-10 101804 102156 101761 -374.263 16598.3 2476.23 -11232.8 
9e-07 17.0524 -0.00970183 -1.00111e-10 101913 102143 101841 -364.044 11040.6 -3993.27 -45308.2 
9.08e-07 17.2927 0.0236273 -2.08198e-10 101895 102175 102113 -411.216 21151.1 -1279.15 -29603.4 
9.16e-07 17.1525 0.00523286 7.91336e-11 101886 102217 101942 -382.562 36483.7 -6136.54 -26878.7 
9.24e-07 17.1401 -0.000175004 6.84499e-11 101956 102098 102040 -379.65 36562.2 118.618 6172.01 
9.32e-07 17.6548 0.00758353 1.49761e-10 101844 102163 101949 -405.508 -29291.8 -7167.64 -2341.04 
9.4e-07 17.5579 -0.041914 1.57594e-11 101768 102188 101996 -398.163 -847.566 -12963.9 -27815.5 
9.48e-07 17.6554 0.027186 2.13779e-10 101732 102184 102023 -364.364 968.127 6040.5 8467.91 
9.56e-07 17.9704 0.0165395 -2.15829e-10 101866 102191 101910 -441.986 -16180 -4957.81 -824.522 
9.64e-07 18.1236 -0.000442268 -5.14708e-11 102031 102157 102172 -369.472 -20080.8 -2558.27 -19641 
9.72e-07 18.0601 -0.0705845 1.08034e-10 102002 102175 102115 -410.093 -13582 -9041.44 10017.4 
9.8e-07 18.4011 0.0892325 -2.39268e-10 102159 102147 102261 -383.023 -22453.2 -2420.98 -26487.1 
9.88e-07 18.457 -0.0821195 8.52946e-11 102014 102214 102300 -423.134 22603.7 -5991.97 -13568.4 
9.96e-07 18.8561 0.0235009 1.83403e-10 103836 102176 103837 -380.389 -25212.2 -7532.43 -533.21 
