ITEM: TIMESTEP
0
ITEM: NUMBER OF CELLS
500
ITEM: BOX BOUNDS pp ss pp
0 0.0001
0 0.0004
0 0.0001
ITEM: CELLS yc f_vel[1] f_vel[2] f_vel[3] f_mom[1] f_mom[2] f_mom[3] f_mom[4] f_q[1] f_q[2] f_q[3] 
4e-07 0 0 0 0 0 0 0 0 0 0 
1.2e-06 0 0 0 0 0 0 0 0 0 0 
2e-06 0 0 0 0 0 0 0 0 0 0 
2.8e-06 0 0 0 0 0 0 0 0 0 0 
3.6e-06 0 0 0 0 0 0 0 0 0 0 
4.4e-06 0 0 0 0 0 0 0 0 0 0 
5.2e-06 0 0 0 0 0 0 0 0 0 0 
6e-06 0 0 0 0 0 0 0 0 0 0 
6.8e-06 0 0 0 0 0 0 0 0 0 0 
7.6e-06 0 0 0 0 0 0 0 0 0 0 
8.4e-06 0 0 0 0 0 0 0 0 0 0 
9.2e-06 0 0 0 0 0 0 0 0 0 0 
1e-05 0 0 0 0 0 0 0 0 0 0 
1.08e-05 0 0 0 0 0 0 0 0 0 0 
1.16e-05 0 0 0 0 0 0 0 0 0 0 
1.24e-05 0 0 0 0 0 0 0 0 0 0 
1.32e-05 0 0 0 0 0 0 0 0 0 0 
1.4e-05 0 0 0 0 0 0 0 0 0 0 
1.48e-05 0 0 0 0 0 0 0 0 0 0 
1.56e-05 0 0 0 0 0 0 0 0 0 0 
1.64e-05 0 0 0 0 0 0 0 0 0 0 
1.72e-05 0 0 0 0 0 0 0 0 0 0 
1.8e-05 0 0 0 0 0 0 0 0 0 0 
1.88e-05 0 0 0 0 0 0 0 0 0 0 
1.96e-05 0 0 0 0 0 0 0 0 0 0 
2.04e-05 0 0 0 0 0 0 0 0 0 0 
2.12e-05 0 0 0 0 0 0 0 0 0 0 
2.2e-05 0 0 0 0 0 0 0 0 0 0 
2.28e-05 0 0 0 0 0 0 0 0 0 0 
2.36e-05 0 0 0 0 0 0 0 0 0 0 
2.44e-05 0 0 0 0 0 0 0 0 0 0 
2.52e-05 0 0 0 0 0 0 0 0 0 0 
2.6e-05 0 0 0 0 0 0 0 0 0 0 
2.68e-05 0 0 0 0 0 0 0 0 0 0 
2.76e-05 0 0 0 0 0 0 0 0 0 0 
2.84e-05 0 0 0 0 0 0 0 0 0 0 
2.92e-05 0 0 0 0 0 0 0 0 0 0 
3e-05 0 0 0 0 0 0 0 0 0 0 
3.08e-05 0 0 0 0 0 0 0 0 0 0 
3.16e-05 0 0 0 0 0 0 0 0 0 0 
3.24e-05 0 0 0 0 0 0 0 0 0 0 
3.32e-05 0 0 0 0 0 0 0 0 0 0 
3.4e-05 0 0 0 0 0 0 0 0 0 0 
3.48e-05 0 0 0 0 0 0 0 0 0 0 
3.56e-05 0 0 0 0 0 0 0 0 0 0 
3.64e-05 0 0 0 0 0 0 0 0 0 0 
3.72e-05 0 0 0 0 0 0 0 0 0 0 
3.8e-05 0 0 0 0 0 0 0 0 0 0 
3.88e-05 0 0 0 0 0 0 0 0 0 0 
3.96e-05 0 0 0 0 0 0 0 0 0 0 
4.04e-05 0 0 0 0 0 0 0 0 0 0 
4.12e-05 0 0 0 0 0 0 0 0 0 0 
4.2e-05 0 0 0 0 0 0 0 0 0 0 
4.28e-05 0 0 0 0 0 0 0 0 0 0 
4.36e-05 0 0 0 0 0 0 0 0 0 0 
4.44e-05 0 0 0 0 0 0 0 0 0 0 
4.52e-05 0 0 0 0 0 0 0 0 0 0 
4.6e-05 0 0 0 0 0 0 0 0 0 0 
4.68e-05 0 0 0 0 0 0 0 0 0 0 
4.76e-05 0 0 0 0 0 0 0 0 0 0 
4.84e-05 0 0 0 0 0 0 0 0 0 0 
4.92e-05 0 0 0 0 0 0 0 0 0 0 
5e-05 0 0 0 0 0 0 0 0 0 0 
5.08e-05 0 0 0 0 0 0 0 0 0 0 
5.16e-05 0 0 0 0 0 0 0 0 0 0 
5.24e-05 0 0 0 0 0 0 0 0 0 0 
5.32e-05 0 0 0 0 0 0 0 0 0 0 
5.4e-05 0 0 0 0 0 0 0 0 0 0 
5.48e-05 0 0 0 0 0 0 0 0 0 0 
5.56e-05 0 0 0 0 0 0 0 0 0 0 
5.64e-05 0 0 0 0 0 0 0 0 0 0 
5.72e-05 0 0 0 0 0 0 0 0 0 0 
5.8e-05 0 0 0 0 0 0 0 0 0 0 
5.88e-05 0 0 0 0 0 0 0 0 0 0 
5.96e-05 0 0 0 0 0 0 0 0 0 0 
6.04e-05 0 0 0 0 0 0 0 0 0 0 
6.12e-05 0 0 0 0 0 0 0 0 0 0 
6.2e-05 0 0 0 0 0 0 0 0 0 0 
6.28e-05 0 0 0 0 0 0 0 0 0 0 
6.36e-05 0 0 0 0 0 0 0 0 0 0 
6.44e-05 0 0 0 0 0 0 0 0 0 0 
6.52e-05 0 0 0 0 0 0 0 0 0 0 
6.6e-05 0 0 0 0 0 0 0 0 0 0 
6.68e-05 0 0 0 0 0 0 0 0 0 0 
6.76e-05 0 0 0 0 0 0 0 0 0 0 
6.84e-05 0 0 0 0 0 0 0 0 0 0 
6.92e-05 0 0 0 0 0 0 0 0 0 0 
7e-05 0 0 0 0 0 0 0 0 0 0 
7.08e-05 0 0 0 0 0 0 0 0 0 0 
7.16e-05 0 0 0 0 0 0 0 0 0 0 
7.24e-05 0 0 0 0 0 0 0 0 0 0 
7.32e-05 0 0 0 0 0 0 0 0 0 0 
7.4e-05 0 0 0 0 0 0 0 0 0 0 
7.48e-05 0 0 0 0 0 0 0 0 0 0 
7.56e-05 0 0 0 0 0 0 0 0 0 0 
7.64e-05 0 0 0 0 0 0 0 0 0 0 
7.72e-05 0 0 0 0 0 0 0 0 0 0 
7.8e-05 0 0 0 0 0 0 0 0 0 0 
7.88e-05 0 0 0 0 0 0 0 0 0 0 
7.96e-05 0 0 0 0 0 0 0 0 0 0 
8.04e-05 0 0 0 0 0 0 0 0 0 0 
8.12e-05 0 0 0 0 0 0 0 0 0 0 
8.2e-05 0 0 0 0 0 0 0 0 0 0 
8.28e-05 0 0 0 0 0 0 0 0 0 0 
8.36e-05 0 0 0 0 0 0 0 0 0 0 
8.44e-05 0 0 0 0 0 0 0 0 0 0 
8.52e-05 0 0 0 0 0 0 0 0 0 0 
8.6e-05 0 0 0 0 0 0 0 0 0 0 
8.68e-05 0 0 0 0 0 0 0 0 0 0 
8.76e-05 0 0 0 0 0 0 0 0 0 0 
8.84e-05 0 0 0 0 0 0 0 0 0 0 
8.92e-05 0 0 0 0 0 0 0 0 0 0 
9e-05 0 0 0 0 0 0 0 0 0 0 
9.08e-05 0 0 0 0 0 0 0 0 0 0 
9.16e-05 0 0 0 0 0 0 0 0 0 0 
9.24e-05 0 0 0 0 0 0 0 0 0 0 
9.32e-05 0 0 0 0 0 0 0 0 0 0 
9.4e-05 0 0 0 0 0 0 0 0 0 0 
9.48e-05 0 0 0 0 0 0 0 0 0 0 
9.56e-05 0 0 0 0 0 0 0 0 0 0 
9.64e-05 0 0 0 0 0 0 0 0 0 0 
9.72e-05 0 0 0 0 0 0 0 0 0 0 
9.8e-05 0 0 0 0 0 0 0 0 0 0 
9.88e-05 0 0 0 0 0 0 0 0 0 0 
9.96e-05 0 0 0 0 0 0 0 0 0 0 
0.0001004 0 0 0 0 0 0 0 0 0 0 
0.0001012 0 0 0 0 0 0 0 0 0 0 
0.000102 0 0 0 0 0 0 0 0 0 0 
0.0001028 0 0 0 0 0 0 0 0 0 0 
0.0001036 0 0 0 0 0 0 0 0 0 0 
0.0001044 0 0 0 0 0 0 0 0 0 0 
0.0001052 0 0 0 0 0 0 0 0 0 0 
0.000106 0 0 0 0 0 0 0 0 0 0 
0.0001068 0 0 0 0 0 0 0 0 0 0 
0.0001076 0 0 0 0 0 0 0 0 0 0 
0.0001084 0 0 0 0 0 0 0 0 0 0 
0.0001092 0 0 0 0 0 0 0 0 0 0 
0.00011 0 0 0 0 0 0 0 0 0 0 
0.0001108 0 0 0 0 0 0 0 0 0 0 
0.0001116 0 0 0 0 0 0 0 0 0 0 
0.0001124 0 0 0 0 0 0 0 0 0 0 
0.0001132 0 0 0 0 0 0 0 0 0 0 
0.000114 0 0 0 0 0 0 0 0 0 0 
0.0001148 0 0 0 0 0 0 0 0 0 0 
0.0001156 0 0 0 0 0 0 0 0 0 0 
0.0001164 0 0 0 0 0 0 0 0 0 0 
0.0001172 0 0 0 0 0 0 0 0 0 0 
0.000118 0 0 0 0 0 0 0 0 0 0 
0.0001188 0 0 0 0 0 0 0 0 0 0 
0.0001196 0 0 0 0 0 0 0 0 0 0 
0.0001204 0 0 0 0 0 0 0 0 0 0 
0.0001212 0 0 0 0 0 0 0 0 0 0 
0.000122 0 0 0 0 0 0 0 0 0 0 
0.0001228 0 0 0 0 0 0 0 0 0 0 
0.0001236 0 0 0 0 0 0 0 0 0 0 
0.0001244 0 0 0 0 0 0 0 0 0 0 
0.0001252 0 0 0 0 0 0 0 0 0 0 
0.000126 0 0 0 0 0 0 0 0 0 0 
0.0001268 0 0 0 0 0 0 0 0 0 0 
0.0001276 0 0 0 0 0 0 0 0 0 0 
0.0001284 0 0 0 0 0 0 0 0 0 0 
0.0001292 0 0 0 0 0 0 0 0 0 0 
0.00013 0 0 0 0 0 0 0 0 0 0 
0.0001308 0 0 0 0 0 0 0 0 0 0 
0.0001316 0 0 0 0 0 0 0 0 0 0 
0.0001324 0 0 0 0 0 0 0 0 0 0 
0.0001332 0 0 0 0 0 0 0 0 0 0 
0.000134 0 0 0 0 0 0 0 0 0 0 
0.0001348 0 0 0 0 0 0 0 0 0 0 
0.0001356 0 0 0 0 0 0 0 0 0 0 
0.0001364 0 0 0 0 0 0 0 0 0 0 
0.0001372 0 0 0 0 0 0 0 0 0 0 
0.000138 0 0 0 0 0 0 0 0 0 0 
0.0001388 0 0 0 0 0 0 0 0 0 0 
0.0001396 0 0 0 0 0 0 0 0 0 0 
0.0001404 0 0 0 0 0 0 0 0 0 0 
0.0001412 0 0 0 0 0 0 0 0 0 0 
0.000142 0 0 0 0 0 0 0 0 0 0 
0.0001428 0 0 0 0 0 0 0 0 0 0 
0.0001436 0 0 0 0 0 0 0 0 0 0 
0.0001444 0 0 0 0 0 0 0 0 0 0 
0.0001452 0 0 0 0 0 0 0 0 0 0 
0.000146 0 0 0 0 0 0 0 0 0 0 
0.0001468 0 0 0 0 0 0 0 0 0 0 
0.0001476 0 0 0 0 0 0 0 0 0 0 
0.0001484 0 0 0 0 0 0 0 0 0 0 
0.0001492 0 0 0 0 0 0 0 0 0 0 
0.00015 0 0 0 0 0 0 0 0 0 0 
0.0001508 0 0 0 0 0 0 0 0 0 0 
0.0001516 0 0 0 0 0 0 0 0 0 0 
0.0001524 0 0 0 0 0 0 0 0 0 0 
0.0001532 0 0 0 0 0 0 0 0 0 0 
0.000154 0 0 0 0 0 0 0 0 0 0 
0.0001548 0 0 0 0 0 0 0 0 0 0 
0.0001556 0 0 0 0 0 0 0 0 0 0 
0.0001564 0 0 0 0 0 0 0 0 0 0 
0.0001572 0 0 0 0 0 0 0 0 0 0 
0.000158 0 0 0 0 0 0 0 0 0 0 
0.0001588 0 0 0 0 0 0 0 0 0 0 
0.0001596 0 0 0 0 0 0 0 0 0 0 
0.0001604 0 0 0 0 0 0 0 0 0 0 
0.0001612 0 0 0 0 0 0 0 0 0 0 
0.000162 0 0 0 0 0 0 0 0 0 0 
0.0001628 0 0 0 0 0 0 0 0 0 0 
0.0001636 0 0 0 0 0 0 0 0 0 0 
0.0001644 0 0 0 0 0 0 0 0 0 0 
0.0001652 0 0 0 0 0 0 0 0 0 0 
0.000166 0 0 0 0 0 0 0 0 0 0 
0.0001668 0 0 0 0 0 0 0 0 0 0 
0.0001676 0 0 0 0 0 0 0 0 0 0 
0.0001684 0 0 0 0 0 0 0 0 0 0 
0.0001692 0 0 0 0 0 0 0 0 0 0 
0.00017 0 0 0 0 0 0 0 0 0 0 
0.0001708 0 0 0 0 0 0 0 0 0 0 
0.0001716 0 0 0 0 0 0 0 0 0 0 
0.0001724 0 0 0 0 0 0 0 0 0 0 
0.0001732 0 0 0 0 0 0 0 0 0 0 
0.000174 0 0 0 0 0 0 0 0 0 0 
0.0001748 0 0 0 0 0 0 0 0 0 0 
0.0001756 0 0 0 0 0 0 0 0 0 0 
0.0001764 0 0 0 0 0 0 0 0 0 0 
0.0001772 0 0 0 0 0 0 0 0 0 0 
0.000178 0 0 0 0 0 0 0 0 0 0 
0.0001788 0 0 0 0 0 0 0 0 0 0 
0.0001796 0 0 0 0 0 0 0 0 0 0 
0.0001804 0 0 0 0 0 0 0 0 0 0 
0.0001812 0 0 0 0 0 0 0 0 0 0 
0.000182 0 0 0 0 0 0 0 0 0 0 
0.0001828 0 0 0 0 0 0 0 0 0 0 
0.0001836 0 0 0 0 0 0 0 0 0 0 
0.0001844 0 0 0 0 0 0 0 0 0 0 
0.0001852 0 0 0 0 0 0 0 0 0 0 
0.000186 0 0 0 0 0 0 0 0 0 0 
0.0001868 0 0 0 0 0 0 0 0 0 0 
0.0001876 0 0 0 0 0 0 0 0 0 0 
0.0001884 0 0 0 0 0 0 0 0 0 0 
0.0001892 0 0 0 0 0 0 0 0 0 0 
0.00019 0 0 0 0 0 0 0 0 0 0 
0.0001908 0 0 0 0 0 0 0 0 0 0 
0.0001916 0 0 0 0 0 0 0 0 0 0 
0.0001924 0 0 0 0 0 0 0 0 0 0 
0.0001932 0 0 0 0 0 0 0 0 0 0 
0.000194 0 0 0 0 0 0 0 0 0 0 
0.0001948 0 0 0 0 0 0 0 0 0 0 
0.0001956 0 0 0 0 0 0 0 0 0 0 
0.0001964 0 0 0 0 0 0 0 0 0 0 
0.0001972 0 0 0 0 0 0 0 0 0 0 
0.000198 0 0 0 0 0 0 0 0 0 0 
0.0001988 0 0 0 0 0 0 0 0 0 0 
0.0001996 0 0 0 0 0 0 0 0 0 0 
0.0002004 0 0 0 0 0 0 0 0 0 0 
0.0002012 0 0 0 0 0 0 0 0 0 0 
0.000202 0 0 0 0 0 0 0 0 0 0 
0.0002028 0 0 0 0 0 0 0 0 0 0 
0.0002036 0 0 0 0 0 0 0 0 0 0 
0.0002044 0 0 0 0 0 0 0 0 0 0 
0.0002052 0 0 0 0 0 0 0 0 0 0 
0.000206 0 0 0 0 0 0 0 0 0 0 
0.0002068 0 0 0 0 0 0 0 0 0 0 
0.0002076 0 0 0 0 0 0 0 0 0 0 
0.0002084 0 0 0 0 0 0 0 0 0 0 
0.0002092 0 0 0 0 0 0 0 0 0 0 
0.00021 0 0 0 0 0 0 0 0 0 0 
0.0002108 0 0 0 0 0 0 0 0 0 0 
0.0002116 0 0 0 0 0 0 0 0 0 0 
0.0002124 0 0 0 0 0 0 0 0 0 0 
0.0002132 0 0 0 0 0 0 0 0 0 0 
0.000214 0 0 0 0 0 0 0 0 0 0 
0.0002148 0 0 0 0 0 0 0 0 0 0 
0.0002156 0 0 0 0 0 0 0 0 0 0 
0.0002164 0 0 0 0 0 0 0 0 0 0 
0.0002172 0 0 0 0 0 0 0 0 0 0 
0.000218 0 0 0 0 0 0 0 0 0 0 
0.0002188 0 0 0 0 0 0 0 0 0 0 
0.0002196 0 0 0 0 0 0 0 0 0 0 
0.0002204 0 0 0 0 0 0 0 0 0 0 
0.0002212 0 0 0 0 0 0 0 0 0 0 
0.000222 0 0 0 0 0 0 0 0 0 0 
0.0002228 0 0 0 0 0 0 0 0 0 0 
0.0002236 0 0 0 0 0 0 0 0 0 0 
0.0002244 0 0 0 0 0 0 0 0 0 0 
0.0002252 0 0 0 0 0 0 0 0 0 0 
0.000226 0 0 0 0 0 0 0 0 0 0 
0.0002268 0 0 0 0 0 0 0 0 0 0 
0.0002276 0 0 0 0 0 0 0 0 0 0 
0.0002284 0 0 0 0 0 0 0 0 0 0 
0.0002292 0 0 0 0 0 0 0 0 0 0 
0.00023 0 0 0 0 0 0 0 0 0 0 
0.0002308 0 0 0 0 0 0 0 0 0 0 
0.0002316 0 0 0 0 0 0 0 0 0 0 
0.0002324 0 0 0 0 0 0 0 0 0 0 
0.0002332 0 0 0 0 0 0 0 0 0 0 
0.000234 0 0 0 0 0 0 0 0 0 0 
0.0002348 0 0 0 0 0 0 0 0 0 0 
0.0002356 0 0 0 0 0 0 0 0 0 0 
0.0002364 0 0 0 0 0 0 0 0 0 0 
0.0002372 0 0 0 0 0 0 0 0 0 0 
0.000238 0 0 0 0 0 0 0 0 0 0 
0.0002388 0 0 0 0 0 0 0 0 0 0 
0.0002396 0 0 0 0 0 0 0 0 0 0 
0.0002404 0 0 0 0 0 0 0 0 0 0 
0.0002412 0 0 0 0 0 0 0 0 0 0 
0.000242 0 0 0 0 0 0 0 0 0 0 
0.0002428 0 0 0 0 0 0 0 0 0 0 
0.0002436 0 0 0 0 0 0 0 0 0 0 
0.0002444 0 0 0 0 0 0 0 0 0 0 
0.0002452 0 0 0 0 0 0 0 0 0 0 
0.000246 0 0 0 0 0 0 0 0 0 0 
0.0002468 0 0 0 0 0 0 0 0 0 0 
0.0002476 0 0 0 0 0 0 0 0 0 0 
0.0002484 0 0 0 0 0 0 0 0 0 0 
0.0002492 0 0 0 0 0 0 0 0 0 0 
0.00025 0 0 0 0 0 0 0 0 0 0 
0.0002508 0 0 0 0 0 0 0 0 0 0 
0.0002516 0 0 0 0 0 0 0 0 0 0 
0.0002524 0 0 0 0 0 0 0 0 0 0 
0.0002532 0 0 0 0 0 0 0 0 0 0 
0.000254 0 0 0 0 0 0 0 0 0 0 
0.0002548 0 0 0 0 0 0 0 0 0 0 
0.0002556 0 0 0 0 0 0 0 0 0 0 
0.0002564 0 0 0 0 0 0 0 0 0 0 
0.0002572 0 0 0 0 0 0 0 0 0 0 
0.000258 0 0 0 0 0 0 0 0 0 0 
0.0002588 0 0 0 0 0 0 0 0 0 0 
0.0002596 0 0 0 0 0 0 0 0 0 0 
0.0002604 0 0 0 0 0 0 0 0 0 0 
0.0002612 0 0 0 0 0 0 0 0 0 0 
0.000262 0 0 0 0 0 0 0 0 0 0 
0.0002628 0 0 0 0 0 0 0 0 0 0 
0.0002636 0 0 0 0 0 0 0 0 0 0 
0.0002644 0 0 0 0 0 0 0 0 0 0 
0.0002652 0 0 0 0 0 0 0 0 0 0 
0.000266 0 0 0 0 0 0 0 0 0 0 
0.0002668 0 0 0 0 0 0 0 0 0 0 
0.0002676 0 0 0 0 0 0 0 0 0 0 
0.0002684 0 0 0 0 0 0 0 0 0 0 
0.0002692 0 0 0 0 0 0 0 0 0 0 
0.00027 0 0 0 0 0 0 0 0 0 0 
0.0002708 0 0 0 0 0 0 0 0 0 0 
0.0002716 0 0 0 0 0 0 0 0 0 0 
0.0002724 0 0 0 0 0 0 0 0 0 0 
0.0002732 0 0 0 0 0 0 0 0 0 0 
0.000274 0 0 0 0 0 0 0 0 0 0 
0.0002748 0 0 0 0 0 0 0 0 0 0 
0.0002756 0 0 0 0 0 0 0 0 0 0 
0.0002764 0 0 0 0 0 0 0 0 0 0 
0.0002772 0 0 0 0 0 0 0 0 0 0 
0.000278 0 0 0 0 0 0 0 0 0 0 
0.0002788 0 0 0 0 0 0 0 0 0 0 
0.0002796 0 0 0 0 0 0 0 0 0 0 
0.0002804 0 0 0 0 0 0 0 0 0 0 
0.0002812 0 0 0 0 0 0 0 0 0 0 
0.000282 0 0 0 0 0 0 0 0 0 0 
0.0002828 0 0 0 0 0 0 0 0 0 0 
0.0002836 0 0 0 0 0 0 0 0 0 0 
0.0002844 0 0 0 0 0 0 0 0 0 0 
0.0002852 0 0 0 0 0 0 0 0 0 0 
0.000286 0 0 0 0 0 0 0 0 0 0 
0.0002868 0 0 0 0 0 0 0 0 0 0 
0.0002876 0 0 0 0 0 0 0 0 0 0 
0.0002884 0 0 0 0 0 0 0 0 0 0 
0.0002892 0 0 0 0 0 0 0 0 0 0 
0.00029 0 0 0 0 0 0 0 0 0 0 
0.0002908 0 0 0 0 0 0 0 0 0 0 
0.0002916 0 0 0 0 0 0 0 0 0 0 
0.0002924 0 0 0 0 0 0 0 0 0 0 
0.0002932 0 0 0 0 0 0 0 0 0 0 
0.000294 0 0 0 0 0 0 0 0 0 0 
0.0002948 0 0 0 0 0 0 0 0 0 0 
0.0002956 0 0 0 0 0 0 0 0 0 0 
0.0002964 0 0 0 0 0 0 0 0 0 0 
0.0002972 0 0 0 0 0 0 0 0 0 0 
0.000298 0 0 0 0 0 0 0 0 0 0 
0.0002988 0 0 0 0 0 0 0 0 0 0 
0.0002996 0 0 0 0 0 0 0 0 0 0 
0.0003004 0 0 0 0 0 0 0 0 0 0 
0.0003012 0 0 0 0 0 0 0 0 0 0 
0.000302 0 0 0 0 0 0 0 0 0 0 
0.0003028 0 0 0 0 0 0 0 0 0 0 
0.0003036 0 0 0 0 0 0 0 0 0 0 
0.0003044 0 0 0 0 0 0 0 0 0 0 
0.0003052 0 0 0 0 0 0 0 0 0 0 
0.000306 0 0 0 0 0 0 0 0 0 0 
0.0003068 0 0 0 0 0 0 0 0 0 0 
0.0003076 0 0 0 0 0 0 0 0 0 0 
0.0003084 0 0 0 0 0 0 0 0 0 0 
0.0003092 0 0 0 0 0 0 0 0 0 0 
0.00031 0 0 0 0 0 0 0 0 0 0 
0.0003108 0 0 0 0 0 0 0 0 0 0 
0.0003116 0 0 0 0 0 0 0 0 0 0 
0.0003124 0 0 0 0 0 0 0 0 0 0 
0.0003132 0 0 0 0 0 0 0 0 0 0 
0.000314 0 0 0 0 0 0 0 0 0 0 
0.0003148 0 0 0 0 0 0 0 0 0 0 
0.0003156 0 0 0 0 0 0 0 0 0 0 
0.0003164 0 0 0 0 0 0 0 0 0 0 
0.0003172 0 0 0 0 0 0 0 0 0 0 
0.000318 0 0 0 0 0 0 0 0 0 0 
0.0003188 0 0 0 0 0 0 0 0 0 0 
0.0003196 0 0 0 0 0 0 0 0 0 0 
0.0003204 0 0 0 0 0 0 0 0 0 0 
0.0003212 0 0 0 0 0 0 0 0 0 0 
0.000322 0 0 0 0 0 0 0 0 0 0 
0.0003228 0 0 0 0 0 0 0 0 0 0 
0.0003236 0 0 0 0 0 0 0 0 0 0 
0.0003244 0 0 0 0 0 0 0 0 0 0 
0.0003252 0 0 0 0 0 0 0 0 0 0 
0.000326 0 0 0 0 0 0 0 0 0 0 
0.0003268 0 0 0 0 0 0 0 0 0 0 
0.0003276 0 0 0 0 0 0 0 0 0 0 
0.0003284 0 0 0 0 0 0 0 0 0 0 
0.0003292 0 0 0 0 0 0 0 0 0 0 
0.00033 0 0 0 0 0 0 0 0 0 0 
0.0003308 0 0 0 0 0 0 0 0 0 0 
0.0003316 0 0 0 0 0 0 0 0 0 0 
0.0003324 0 0 0 0 0 0 0 0 0 0 
0.0003332 0 0 0 0 0 0 0 0 0 0 
0.000334 0 0 0 0 0 0 0 0 0 0 
0.0003348 0 0 0 0 0 0 0 0 0 0 
0.0003356 0 0 0 0 0 0 0 0 0 0 
0.0003364 0 0 0 0 0 0 0 0 0 0 
0.0003372 0 0 0 0 0 0 0 0 0 0 
0.000338 0 0 0 0 0 0 0 0 0 0 
0.0003388 0 0 0 0 0 0 0 0 0 0 
0.0003396 0 0 0 0 0 0 0 0 0 0 
0.0003404 0 0 0 0 0 0 0 0 0 0 
0.0003412 0 0 0 0 0 0 0 0 0 0 
0.000342 0 0 0 0 0 0 0 0 0 0 
0.0003428 0 0 0 0 0 0 0 0 0 0 
0.0003436 0 0 0 0 0 0 0 0 0 0 
0.0003444 0 0 0 0 0 0 0 0 0 0 
0.0003452 0 0 0 0 0 0 0 0 0 0 
0.000346 0 0 0 0 0 0 0 0 0 0 
0.0003468 0 0 0 0 0 0 0 0 0 0 
0.0003476 0 0 0 0 0 0 0 0 0 0 
0.0003484 0 0 0 0 0 0 0 0 0 0 
0.0003492 0 0 0 0 0 0 0 0 0 0 
0.00035 0 0 0 0 0 0 0 0 0 0 
0.0003508 0 0 0 0 0 0 0 0 0 0 
0.0003516 0 0 0 0 0 0 0 0 0 0 
0.0003524 0 0 0 0 0 0 0 0 0 0 
0.0003532 0 0 0 0 0 0 0 0 0 0 
0.000354 0 0 0 0 0 0 0 0 0 0 
0.0003548 0 0 0 0 0 0 0 0 0 0 
0.0003556 0 0 0 0 0 0 0 0 0 0 
0.0003564 0 0 0 0 0 0 0 0 0 0 
0.0003572 0 0 0 0 0 0 0 0 0 0 
0.000358 0 0 0 0 0 0 0 0 0 0 
0.0003588 0 0 0 0 0 0 0 0 0 0 
0.0003596 0 0 0 0 0 0 0 0 0 0 
0.0003604 0 0 0 0 0 0 0 0 0 0 
0.0003612 0 0 0 0 0 0 0 0 0 0 
0.000362 0 0 0 0 0 0 0 0 0 0 
0.0003628 0 0 0 0 0 0 0 0 0 0 
0.0003636 0 0 0 0 0 0 0 0 0 0 
0.0003644 0 0 0 0 0 0 0 0 0 0 
0.0003652 0 0 0 0 0 0 0 0 0 0 
0.000366 0 0 0 0 0 0 0 0 0 0 
0.0003668 0 0 0 0 0 0 0 0 0 0 
0.0003676 0 0 0 0 0 0 0 0 0 0 
0.0003684 0 0 0 0 0 0 0 0 0 0 
0.0003692 0 0 0 0 0 0 0 0 0 0 
0.00037 0 0 0 0 0 0 0 0 0 0 
0.0003708 0 0 0 0 0 0 0 0 0 0 
0.0003716 0 0 0 0 0 0 0 0 0 0 
0.0003724 0 0 0 0 0 0 0 0 0 0 
0.0003732 0 0 0 0 0 0 0 0 0 0 
0.000374 0 0 0 0 0 0 0 0 0 0 
0.0003748 0 0 0 0 0 0 0 0 0 0 
0.0003756 0 0 0 0 0 0 0 0 0 0 
0.0003764 0 0 0 0 0 0 0 0 0 0 
0.0003772 0 0 0 0 0 0 0 0 0 0 
0.000378 0 0 0 0 0 0 0 0 0 0 
0.0003788 0 0 0 0 0 0 0 0 0 0 
0.0003796 0 0 0 0 0 0 0 0 0 0 
0.0003804 0 0 0 0 0 0 0 0 0 0 
0.0003812 0 0 0 0 0 0 0 0 0 0 
0.000382 0 0 0 0 0 0 0 0 0 0 
0.0003828 0 0 0 0 0 0 0 0 0 0 
0.0003836 0 0 0 0 0 0 0 0 0 0 
0.0003844 0 0 0 0 0 0 0 0 0 0 
0.0003852 0 0 0 0 0 0 0 0 0 0 
0.000386 0 0 0 0 0 0 0 0 0 0 
0.0003868 0 0 0 0 0 0 0 0 0 0 
0.0003876 0 0 0 0 0 0 0 0 0 0 
0.0003884 0 0 0 0 0 0 0 0 0 0 
0.0003892 0 0 0 0 0 0 0 0 0 0 
0.00039 0 0 0 0 0 0 0 0 0 0 
0.0003908 0 0 0 0 0 0 0 0 0 0 
0.0003916 0 0 0 0 0 0 0 0 0 0 
0.0003924 0 0 0 0 0 0 0 0 0 0 
0.0003932 0 0 0 0 0 0 0 0 0 0 
0.000394 0 0 0 0 0 0 0 0 0 0 
0.0003948 0 0 0 0 0 0 0 0 0 0 
0.0003956 0 0 0 0 0 0 0 0 0 0 
0.0003964 0 0 0 0 0 0 0 0 0 0 
0.0003972 0 0 0 0 0 0 0 0 0 0 
0.000398 0 0 0 0 0 0 0 0 0 0 
0.0003988 0 0 0 0 0 0 0 0 0 0 
0.0003996 0 0 0 0 0 0 0 0 0 0 
