ITEM: TIMESTEP
500000
ITEM: NUMBER OF CELLS
125
ITEM: BOX BOUNDS pp ss pp
0 0.0001
0 1e-06
0 0.0001
ITEM: CELLS yc f_vel[1] f_vel[2] f_vel[3] f_mom[1] f_mom[2] f_mom[3] f_mom[4] f_q[1] f_q[2] f_q[3] 
4e-09 1.46368 1.44671 -9.86167e-11 103662 103529 103759 -427.44 16733.1 -187147 -42554 
1.2e-08 1.68246 0.0239485 -6.37119e-11 103167 103111 103236 -361.605 -12078.6 -41922.1 -37522.5 
2e-08 1.77857 0.0266452 3.48925e-10 103211 103013 103059 -426.613 15536.4 -19679.2 -26697.6 
2.8e-08 1.61164 -0.00358141 5.40608e-12 103026 103019 103091 -440.853 7747.74 -6872.55 13729.9 
3.6e-08 2.06774 0.0653543 3.07538e-10 103121 103003 103103 -385.075 3442.88 -10554.1 30802.8 
4.4e-08 2.59702 -0.10916 1.00672e-10 103188 103020 103087 -378.622 -34469.7 -9874.92 2113.8 
5.2e-08 2.39066 -0.0546279 7.02367e-11 103283 103043 103107 -422.651 -6583.7 -10088.4 -30489.5 
6e-08 2.42629 0.0335724 2.20752e-10 103221 103031 103222 -439.566 8063.55 -16544.9 10576.2 
6.8e-08 2.81882 0.00108995 -1.10318e-10 103120 102987 103108 -423.909 -20823 -11023.1 27352.5 
7.6e-08 2.82505 0.00360175 -1.63153e-11 103408 103039 103207 -450.856 30185.7 -16455.4 14307.5 
8.4e-08 2.80336 -0.0463625 4.51319e-10 103385 102978 103297 -439.366 30614.2 -5008.06 -43897.3 
9.2e-08 3.18527 -0.0478608 1.60552e-10 103404 103093 103320 -411.196 30476.6 8632.32 -43151.5 
1e-07 3.21831 0.0733681 5.16685e-11 103152 102974 103093 -377.513 23822.4 -18077.1 -27579.2 
1.08e-07 3.20562 -0.00710059 -1.55924e-11 103241 103102 103260 -444.199 22025 -13616.7 57189.3 
1.16e-07 3.45677 -0.0188707 4.73549e-11 103159 102970 103181 -403.732 16395 -8700 46431.7 
1.24e-07 3.37444 0.031795 -1.86051e-10 103228 103054 103203 -407.503 32457.4 -14357.7 9745.76 
1.32e-07 3.61025 -0.0442581 -3.31815e-10 103239 102994 103366 -431.13 25226.2 -2880.85 -15797.3 
1.4e-07 3.46385 -0.0414726 -2.98457e-10 103275 103088 103260 -406.997 47036.8 -2583.73 221.9 
1.48e-07 3.91089 0.066866 1.10238e-10 103301 103038 103170 -409.831 12140.4 -17651.4 2567.69 
1.56e-07 4.00905 0.0342533 3.49999e-10 103308 103048 103164 -418.305 15789.4 -17183.8 -42061.5 
1.64e-07 4.18202 0.0532221 5.20368e-10 103269 103055 103235 -432.549 31744.6 -25193.1 -10788.5 
1.72e-07 4.31879 -0.00353834 -1.08132e-10 103289 103044 103168 -420.438 16716.4 -3257.3 -9932.73 
1.8e-07 4.49383 -0.0057152 1.04312e-10 103043 102967 103126 -380.875 7914.24 -12662.6 13081.9 
1.88e-07 4.29917 -0.0536863 1.43377e-10 103167 103054 103182 -424.816 34172.3 -1822.6 14195.4 
1.96e-07 4.40337 -0.00289645 7.24139e-11 102984 103043 103115 -418.435 26150.5 -7840.08 13360.3 
2.04e-07 4.85499 -0.126345 -7.42965e-11 103072 102964 103075 -423.458 10337.3 12593.2 8164.56 
2.12e-07 5.01958 0.0321537 7.37767e-11 103080 103105 103145 -420.67 -10130.6 -12891.6 -5589.02 
2.2e-07 5.02606 -0.0203872 1.11714e-10 103304 103033 103340 -440.058 5938.78 906.335 34190.8 
2.28e-07 5.52055 0.00132103 -6.75859e-11 103118 102999 103402 -418.001 -28201 -17867 1032.82 
2.36e-07 5.79534 0.053268 -9.79585e-13 103336 103018 103264 -440.108 -36230.6 -11510.5 8004.71 
2.44e-07 5.71312 0.00696011 5.0346e-11 103296 103038 103191 -416.368 -21453.1 -3601.67 9960.69 
2.52e-07 6.18378 0.0408277 1.36718e-11 103038 103046 103314 -413.947 -16568.9 -18284.2 3018.81 
2.6e-07 6.18144 0.0717756 2.58696e-11 103332 103020 103308 -379.019 -2885.39 -16889.7 5269.41 
2.68e-07 6.333 0.0591912 1.43075e-10 103272 103028 103189 -409.844 1530.13 1212.59 -3963.82 
2.76e-07 6.36314 -0.0467351 1.29755e-10 103159 103008 103124 -437.869 -21405.2 -21874.1 16268.7 
2.84e-07 6.61776 -0.00749324 -1.31176e-10 103311 103058 103217 -399.031 6437.06 -11901.7 24835.3 
2.92e-07 6.74075 0.0362471 6.55522e-12 103068 102989 103317 -388.588 1189.98 3495.61 -5579.43 
3e-07 6.84817 -0.0336839 -3.23343e-10 103072 103002 103189 -430.561 -15012.6 -19471.9 2709.9 
3.08e-07 6.89773 0.0325829 -2.12776e-10 103099 102996 103195 -413.045 16026 -1297.82 -26850 
3.16e-07 6.87558 0.013401 3.17597e-10 103397 103094 103347 -429.306 15367.9 -26986.9 -9723.38 
3.24e-07 7.29255 0.0464739 2.56278e-10 103317 103042 103162 -394.899 10693.8 -18443.6 21321.5 
3.32e-07 7.27893 -0.0643073 -2.58647e-10 103026 103012 103106 -408.084 -13209.6 2068.32 8027.33 
3.4e-07 7.7037 0.0417041 1.68258e-10 103246 103050 103297 -408.735 15860.1 -2115.09 7372.1 
3.48e-07 7.77909 -0.0888976 3.80812e-10 103238 103017 103252 -390.046 -427.5 729.901 -24049.1 
3.56e-07 7.75427 0.122179 -2.53599e-10 103273 102993 103144 -410.771 51697.1 -20899.1 -21957.4 
3.64e-07 7.61716 0.0468902 -1.5353e-10 103279 103093 103279 -421.484 -3294.88 -24992.7 14698.2 
3.72e-07 7.9 -0.0509122 2.58344e-10 103045 102983 103214 -420.519 18894.1 -8189.23 13473.6 
3.8e-07 8.22898 0.0699445 3.43372e-10 103263 102998 103320 -431.109 -469.569 -7990.68 -6244.73 
3.88e-07 8.37817 -0.0827465 1.86416e-10 103092 103079 103208 -466.285 -35353.2 -9000.49 -6161.57 
3.96e-07 8.07976 0.0770802 -3.84654e-11 103229 103089 103286 -407.864 39510.5 -11490.2 -17563.3 
4.04e-07 8.447 -0.0385503 7.48409e-11 103255 103034 103088 -407.297 10141.6 -10120.5 5012.53 
4.12e-07 8.7616 0.0369873 4.5044e-10 103108 103011 103143 -398.234 -19439.2 -12801.8 -9643.59 
4.2e-07 8.87467 0.074854 -1.60509e-10 103115 103004 103095 -387.456 -22656.1 -8170.14 57696.2 
4.28e-07 8.78766 0.00190256 1.37963e-10 103285 103038 103247 -447.388 29954.9 -18578.8 -645.449 
4.36e-07 8.82313 -0.0468235 4.18838e-11 103263 103074 103161 -402.419 18264 -5335.22 -7082.15 
4.44e-07 9.1202 0.0342297 1.12246e-10 103109 103041 103141 -435.573 31398.4 -10928 -11896.7 
4.52e-07 9.44082 -0.0188011 -3.65557e-10 103004 103022 102946 -377.837 -20883.9 -10675.2 -4394.64 
4.6e-07 9.4199 0.0143693 6.82796e-12 102968 103047 103073 -408.855 25423.7 -2021.86 -39481.2 
4.68e-07 9.5255 0.0769087 1.76126e-10 103055 103067 103072 -436.178 -8067.98 -16479.4 19851 
4.76e-07 9.94869 -0.0453934 -1.65209e-10 102858 103005 103104 -417.193 -8091.36 108.037 11835.5 
4.84e-07 9.86885 -0.0967088 2.54583e-11 103187 103009 103210 -419.399 -9905.93 3397.79 -28489.7 
4.92e-07 10.3127 0.051894 -1.79006e-11 102989 103016 103197 -409.24 -20625.1 -24932.6 -15738.7 
5e-07 10.5222 0.0978453 -1.95198e-10 103063 103033 103188 -419.554 -78062.4 76.0136 -57082.4 
5.08e-07 10.6209 -0.0331254 4.86118e-10 103181 103015 103291 -398.233 -23000.7 -13468 31197.3 
5.16e-07 10.4957 -0.0127345 1.69699e-10 103075 102999 103092 -444.051 -30809.8 -8303.17 -22914.4 
5.24e-07 10.9286 0.0634604 -1.77556e-10 103112 103020 103255 -408.792 -16807.1 -21001.8 -35489.5 
5.32e-07 10.7034 -0.0133054 -2.37756e-11 103247 103059 103133 -427.87 -7460.85 2745.68 -11949.6 
5.4e-07 11.0713 0.0618479 -7.76087e-11 103175 102966 103163 -396.021 7095.27 -7902.21 -10399.6 
5.48e-07 11.5278 -0.0839912 6.23622e-11 103100 103022 103209 -453.816 -5856.1 -20255.6 1146.67 
5.56e-07 11.3248 0.0432467 -2.76674e-10 103192 102951 102993 -377.546 11631.8 -556.027 7469.14 
5.64e-07 11.4465 -0.0225274 -6.42173e-11 103031 103039 103160 -397.104 -31814 -8339.42 -11297.7 
5.72e-07 11.4974 -0.00811325 2.09924e-11 103070 103043 103219 -412.576 27657.1 -7232.91 363.693 
5.8e-07 11.7712 0.0174237 3.68816e-10 103050 103054 103093 -414.678 26220.2 -19445.1 -38754.6 
5.88e-07 11.5158 0.00342335 -7.1363e-11 103039 103033 103026 -393.404 12893.8 -3920.24 26257.8 
5.96e-07 11.3512 0.0137312 1.80803e-10 103067 103042 103091 -411.512 59498.7 1045.68 -21071.1 
6.04e-07 11.9196 -0.0716152 6.60422e-11 102936 103013 103049 -424.466 -6369.9 -5387.34 17003 
6.12e-07 11.8976 -0.0532651 -3.02033e-10 103065 103047 103019 -407.83 42986.7 -12470.9 -24283.3 
6.2e-07 12.3487 -0.0179777 -6.723e-11 103104 103019 102990 -384.661 -22123.6 -1989.29 -8322.65 
6.28e-07 12.8152 0.0536352 1.77364e-10 103241 102969 103281 -441.901 -47522.6 -20452.3 16261.9 
6.36e-07 12.1783 -0.0231661 4.70003e-11 103127 103082 103083 -425.008 -14263.2 -6837.23 40203.2 
6.44e-07 12.8987 0.00160225 4.95594e-10 103247 103024 103040 -368.094 -33768 -225.258 -12289 
6.52e-07 13.1106 0.0211764 1.85108e-10 103157 103009 103229 -427.99 -40493.4 -11195.8 39064.3 
6.6e-07 12.7649 0.0109055 -3.28672e-10 103193 102974 103127 -389.336 749.827 -6768.78 -21649.8 
6.68e-07 13.1182 0.0743425 -1.02197e-10 103230 103098 103130 -404.858 -6161.22 -15776.6 -39048.3 
6.76e-07 13.4734 0.021762 -5.59555e-11 103170 103082 103224 -445.814 -26748.7 -16172.6 -20702.5 
6.84e-07 13.6016 0.059436 -4.92371e-10 103028 102999 102987 -387.355 -1868.11 -6543.69 -23177.1 
6.92e-07 13.7882 0.0981067 -2.78503e-11 103331 103084 103111 -386.201 -11586.4 -16671.9 29764.3 
7e-07 13.7554 0.0311041 4.75917e-10 103329 102968 102921 -405.899 2639.77 -6573.61 -684.851 
7.08e-07 13.8274 0.0254844 1.41477e-10 103096 103049 103210 -418.017 276.562 -4838.78 5233.17 
7.16e-07 14.0472 -0.0389549 -8.87565e-11 103169 103066 103126 -440.94 -25102.9 -15709.2 -19953.9 
7.24e-07 14.2248 0.135122 2.62153e-10 103188 103050 103126 -420.746 -27122.4 -28707.6 -56848.6 
7.32e-07 14.5358 -0.00898994 7.0777e-12 103145 103012 103270 -430.373 -3406.22 13405.4 -40946.8 
7.4e-07 14.2139 -0.036127 2.00195e-11 103125 102984 102914 -390.603 31958.6 -21607.4 -25512.7 
7.48e-07 14.3926 0.0300031 5.84356e-11 103172 103036 103324 -383.51 -7577.93 -7608.16 -6364.03 
7.56e-07 14.3757 -0.0478834 -1.86506e-10 103235 103015 103290 -411.793 26710.7 -12193.1 15713.6 
7.64e-07 14.7716 0.0214335 -8.58787e-11 103188 103013 103520 -416.611 -18311.4 -9628.29 -55203.1 
7.72e-07 14.7827 0.0550691 -1.57317e-10 103254 103077 103212 -414.86 -12340.5 -11525.7 1546.53 
7.8e-07 14.878 0.110406 -2.94722e-10 103211 102987 103257 -442.407 -23863.9 -6117.14 -9621.72 
7.88e-07 15.0017 0.000556827 -9.53345e-11 103174 103059 103289 -414.034 -43031.6 -17485.6 -31587.9 
7.96e-07 15.056 0.0836923 -6.52997e-11 103292 103055 103152 -441.863 -33605 -21686 -9041.28 
8.04e-07 15.2438 0.00719921 -2.11444e-10 103275 103038 103282 -411.69 -32393.1 -7150.35 -53902.4 
8.12e-07 15.1923 0.080913 -3.40394e-12 103165 103020 103027 -429.65 6729.38 -11470.3 -14840.5 
8.2e-07 15.549 0.035816 6.45427e-11 103069 102977 103245 -403.365 -3007.91 -406.115 -4390.94 
8.28e-07 15.8693 0.0365354 4.31893e-10 103401 103035 103098 -403.767 -48349.1 -11652.7 -22642.4 
8.36e-07 15.7297 0.0175824 3.36973e-10 103276 103056 103235 -406.664 -8999.6 -16361.4 -5531.89 
8.44e-07 15.9937 0.0747268 -3.53473e-11 103222 102993 103134 -411.353 7647.93 -23478.3 44304.9 
8.52e-07 16.0008 -0.00426735 3.95991e-10 103193 103068 103083 -412.335 18349.9 11995.7 -25208.3 
8.6e-07 16.3102 0.153293 4.09258e-10 103344 103018 103206 -402.309 13176.7 -30942 7289.08 
8.68e-07 16.6718 -0.022367 -1.34194e-10 103050 103029 103039 -394.889 -20907.9 2717.94 31931.1 
8.76e-07 16.6709 0.00934302 -2.30839e-10 103165 103034 103258 -441.169 -537.627 -16722.2 32786.4 
8.84e-07 16.801 0.0849718 -1.90772e-11 103033 103042 103190 -455.337 -6357.24 -3590.09 37316.2 
8.92e-07 16.9888 -0.0816361 -9.03674e-11 103245 103022 103240 -408.402 32649.1 5808.95 40763 
9e-07 17.3293 -0.134622 2.3699e-10 103068 103043 103183 -430.726 -14880.1 -6541.17 -30623.5 
9.08e-07 17.3846 0.132586 9.95189e-11 103225 103002 103235 -436.209 -35270.7 4314.08 -21269.4 
9.16e-07 17.6017 -0.0577081 1.46225e-10 103207 103087 103431 -399.942 -26066.6 -19738.2 -11708.4 
9.24e-07 17.5685 0.0329756 -3.48202e-10 103144 103002 103202 -408.345 -3491.12 -1426.79 17074 
9.32e-07 17.6428 -0.0459992 -1.01318e-10 103324 103083 103341 -412.428 -6403.94 -5900.88 21488 
9.4e-07 17.3303 0.045814 1.76646e-10 102991 102954 103157 -353.231 17719.6 -3384.04 1565.25 
9.48e-07 17.8006 0.0144991 9.38126e-11 103020 103044 103246 -445.481 16595.9 -18610.1 34744 
9.56e-07 17.9678 0.0739914 2.27071e-12 102996 103050 103302 -400.954 -15925.3 7271.4 34286.6 
9.64e-07 18.0367 -0.062633 1.26274e-10 103007 103076 103196 -415.265 -15786.4 -274.943 -18054.4 
9.72e-07 18.1293 0.0299341 -4.30592e-11 103304 102993 103182 -419.264 -24780.5 -12170.7 31407.6 
9.8e-07 18.29 -0.0948473 3.02787e-10 103135 103050 102956 -430.854 -21281.3 2032.44 -31813.7 
9.88e-07 18.6372 0.0555575 2.00192e-10 103102 103003 103002 -409.175 -14848.7 12915.4 -20994.9 
9.96e-07 18.7037 -1.38951 5.10087e-10 103596 103594 103656 -461.514 -15985.3 167278 -22118.5 
