ITEM: TIMESTEP
500000
ITEM: NUMBER OF CELLS
125
ITEM: BOX BOUNDS pp ss pp
0 0.0001
0 1e-06
0 0.0001
ITEM: CELLS yc f_vel[1] f_vel[2] f_vel[3] f_mom[1] f_mom[2] f_mom[3] f_mom[4] f_q[1] f_q[2] f_q[3] 
4e-09 0.862976 -1.64748 5.07366e-11 103889 102228 103882 -405.089 29655.8 210841 33974.1 
1.2e-08 0.759701 -0.275193 -7.5563e-11 103286 102694 103276 -415.435 31196.7 52440.7 45629.1 
2e-08 1.04434 -0.117569 -2.35586e-10 103018 102752 103114 -419.317 -13605.5 4829.44 34672.5 
2.8e-08 1.18021 -0.120518 -2.16206e-10 103155 102705 103112 -403.879 24848.8 2260.46 24392.9 
3.6e-08 1.35915 0.0799558 -5.06645e-11 102805 102719 102738 -416.54 27179.2 -906.973 17555.9 
4.4e-08 1.61056 0.0722536 -1.11385e-10 102762 102744 102799 -410.058 31804.4 155.334 9684.64 
5.2e-08 1.93486 0.0346528 -1.06692e-10 102657 102790 102830 -412.038 -5415.13 -21072.9 -7986.99 
6e-08 1.87724 0.0737469 1.80237e-10 102823 102739 102816 -396.239 29482.5 7087.42 29348.6 
6.8e-08 2.08127 0.0663316 3.31929e-10 102703 102773 102817 -407.136 3937.56 -25882.7 26460.8 
7.6e-08 2.04033 0.111507 1.56853e-10 102664 102752 102684 -403.472 -9841.26 5719.31 50935.6 
8.4e-08 2.44406 0.0116666 -2.80881e-10 102653 102807 102565 -420.422 -7213.82 -27395 20263 
9.2e-08 2.50845 0.115786 1.84078e-10 102737 102734 102643 -415.476 16439.6 -867.072 -16512.7 
1e-07 2.3978 -0.0223225 -5.12991e-10 102712 102794 102431 -393.605 43105.5 -17965.2 31071.8 
1.08e-07 2.80542 0.0384933 1.36507e-10 102736 102777 102780 -428.561 -4879.52 -4980.89 33081.2 
1.16e-07 2.86196 0.129021 -6.66568e-10 102863 102695 102572 -380.601 15476.2 -17699.5 5713.27 
1.24e-07 2.97725 0.00107225 7.4176e-11 102812 102773 102643 -407.56 -16752.4 -2837.75 2799.29 
1.32e-07 3.21882 0.094285 -2.94644e-10 102757 102751 102839 -410.967 -1885.85 -8453.55 4955.87 
1.4e-07 3.02334 0.00168683 2.88844e-10 102652 102782 102624 -411.413 32547 -13452.2 10597.3 
1.48e-07 3.24505 0.061197 3.98275e-13 102542 102734 102490 -421.411 33782.8 -8529.46 1098.12 
1.56e-07 3.72723 0.00362645 -1.12528e-10 102550 102818 102474 -384.524 -4000.94 -10297.3 -42017.2 
1.64e-07 3.94705 0.0769549 -2.87215e-10 102461 102702 102628 -408.113 3281.28 -17423.5 1031.1 
1.72e-07 3.89675 0.0116621 -1.6149e-10 102683 102778 102559 -396.059 44942.4 -7349.7 -19399.2 
1.8e-07 3.98136 0.0332352 4.85945e-10 102744 102719 102729 -418.111 28954 -17742.5 -17651.6 
1.88e-07 4.44789 0.0239749 8.91222e-11 102762 102789 102535 -401.845 -11573 -2474.09 -29818.6 
1.96e-07 4.61391 0.0135016 -9.2989e-11 102670 102697 102568 -394.743 14794.1 -12033.3 17204.2 
2.04e-07 4.80342 0.0946823 -3.06832e-10 102559 102796 102576 -413.611 -21815 -5235.15 22461.4 
2.12e-07 4.65656 -0.0155365 -2.64559e-10 102667 102748 102550 -422.915 -404.661 -20830.6 -8544.5 
2.2e-07 4.74675 0.0724071 -3.6283e-10 102754 102704 102627 -393.276 55208.6 -1156.87 -6611.49 
2.28e-07 4.99592 -0.0700284 5.0276e-10 102565 102779 102638 -421.309 40398.4 -8791.24 12695.6 
2.36e-07 5.05256 0.120062 3.65126e-10 102538 102762 102424 -376.759 21131.1 -5779.97 -26055 
2.44e-07 4.92892 -0.0519335 6.09042e-11 102647 102738 102471 -423.553 3482.93 -14091.4 -16312 
2.52e-07 5.31173 0.0161786 1.88118e-11 102419 102779 102399 -370.207 -21806.4 -6576.91 12987 
2.6e-07 5.18369 -0.0277947 -1.09935e-10 102589 102776 102471 -446.422 17033.1 -7538.58 7059.32 
2.68e-07 5.52202 0.107002 -3.70014e-10 102548 102705 102446 -388.254 -3504.21 2910.33 -16762.6 
2.76e-07 5.72905 -0.0362303 1.41926e-10 102585 102780 102491 -403.629 -14436.5 -11231.1 3702.36 
2.84e-07 5.59612 0.0481013 2.2331e-10 102416 102743 102426 -404.648 22240.5 -1420.03 13240.9 
2.92e-07 5.92747 0.000818706 3.87995e-11 102488 102763 102501 -382.614 67120.9 -2762.27 7186.38 
3e-07 6.06377 0.103709 -2.54904e-10 102369 102704 102591 -409.936 13858.3 -11769.4 -9791.78 
3.08e-07 6.32753 -0.0802661 1.57126e-10 102508 102746 102513 -414.561 16364.5 -5561.43 23961.3 
3.16e-07 6.59267 0.0235018 1.51248e-10 102540 102809 102620 -413.529 15670.2 -10610.1 35703.6 
3.24e-07 6.60224 0.00832303 -8.37784e-11 102545 102729 102544 -403.954 -8910.34 4322.41 9174.29 
3.32e-07 6.82588 0.00989128 2.83332e-10 102596 102759 102580 -407.401 -14964.2 -3386 17163.5 
3.4e-07 6.94684 -0.0193183 -4.34376e-10 102505 102777 102411 -417.28 -16819.3 -2732.95 35738.3 
3.48e-07 6.90906 0.023329 -5.95818e-11 102578 102732 102352 -425.741 3158.98 -10733.3 2736.11 
3.56e-07 7.03359 -0.0523088 2.16174e-11 102540 102755 102504 -363.974 18891.8 -8215.58 -26843.3 
3.64e-07 7.37974 -0.0204616 6.51918e-11 102577 102707 102576 -416.196 -15962.9 -5944.54 359.971 
3.72e-07 7.6572 0.0533228 -1.81056e-10 102512 102804 102586 -408.05 -12374.4 -1715.48 8132.22 
3.8e-07 7.40288 -0.0344601 2.45431e-10 102429 102745 102506 -391.211 18152.8 -6748.86 35276.7 
3.88e-07 7.56087 -0.000477679 2.45683e-10 102396 102722 102627 -411.737 -14143.8 7125.98 25919.9 
3.96e-07 7.91128 -0.0553407 -9.41586e-11 102640 102744 102845 -396.886 -9819.51 2262.04 21162.3 
4.04e-07 7.95148 0.0768178 7.34305e-11 102526 102743 102786 -440.274 -11231.2 -15358.2 11569.8 
4.12e-07 8.10411 -0.043533 -2.39597e-10 102440 102735 102598 -384.638 -4463.76 -13027.3 -5464.68 
4.2e-07 8.01745 0.0787028 1.20771e-10 102473 102702 102340 -418.983 20314.2 -583.269 13626.1 
4.28e-07 8.36155 0.0063097 -3.75899e-10 102393 102752 102402 -432.409 43742 -6639.5 -2514.99 
4.36e-07 8.56973 -0.134169 3.27324e-10 102647 102776 102505 -412.904 46434.5 -2938.02 -30663.5 
4.44e-07 8.94313 -0.0231641 1.33028e-10 102438 102744 102636 -402.499 7557.33 -470.391 14037.3 
4.52e-07 8.8247 0.00235254 -2.58736e-12 102541 102720 102505 -410.89 33616.2 3060.23 42817.6 
4.6e-07 9.16426 0.0204681 6.16916e-11 102546 102759 102558 -384.99 13279.1 -2580.63 10039.4 
4.68e-07 9.31251 0.0107004 -1.56788e-10 102440 102732 102559 -402.073 23183.3 4530.77 -6190.37 
4.76e-07 9.67862 -0.0379595 5.21644e-11 102637 102804 102720 -417.207 -5822.72 -4371.65 13889.6 
4.84e-07 9.53987 -0.0140347 -4.3275e-11 102700 102676 102733 -388.261 17905.6 -10961.8 11614.6 
4.92e-07 9.63633 0.0126361 9.37853e-11 102657 102774 102559 -398.511 25540.9 -2286.44 15867.4 
5e-07 9.69583 0.00120066 4.16502e-11 102527 102713 102464 -404.181 12084 -10468.8 -17464.9 
5.08e-07 9.6715 -0.036606 -2.79063e-11 102694 102795 102663 -394.077 40752.9 -3368.73 -4306.9 
5.16e-07 10.025 -0.0125024 -1.71549e-10 102560 102749 102589 -411.937 26439.7 9082.61 1194.11 
5.24e-07 10.1242 -0.0607407 -2.38286e-10 102546 102767 102572 -382.987 19265.1 -1569.78 -14888.3 
5.32e-07 10.3064 0.0285003 1.00966e-10 102629 102734 102675 -437.242 30654.9 -8182.29 -25265.9 
5.4e-07 10.2853 0.0085975 3.8923e-11 102634 102790 102754 -402.639 6649.02 2364.38 18713 
5.48e-07 10.6988 0.033016 -9.51503e-11 102557 102751 102639 -430.408 -12569.2 -13337.2 -10328.7 
5.56e-07 10.8392 0.103668 -3.19459e-11 102504 102697 102562 -361.529 -323.342 8403.29 44338.5 
5.64e-07 11.0833 -0.0820309 -3.17376e-11 102535 102782 102577 -419.414 33562.2 -18903.8 2888.57 
5.72e-07 11.0769 -0.038072 -1.46138e-10 102451 102735 102434 -416.777 -8806.43 -3149.58 25386.7 
5.8e-07 11.3093 -0.0182172 -6.75864e-11 102410 102752 102454 -413.808 -11925 11844.5 -45646.8 
5.88e-07 11.3733 -0.0249184 -5.92359e-12 102425 102799 102440 -403.309 -42143.7 -4585.17 -40105.3 
5.96e-07 11.5572 -0.0663416 -5.92576e-11 102497 102702 102398 -411.499 -13569.7 -5609.41 -38607 
6.04e-07 11.7028 0.0114644 1.5153e-10 102418 102754 102580 -391.287 -2185.55 3795.95 -38865.5 
6.12e-07 11.7985 0.071148 1.31689e-10 102431 102761 102513 -381.457 -44773.8 -6630.72 -9057.03 
6.2e-07 12.0975 -0.0781093 -1.73791e-11 102665 102746 102590 -426.84 -45913.6 637.253 -6405.14 
6.28e-07 12.0925 -0.00990759 -3.63325e-10 102486 102788 102512 -379.365 -19897.2 6567.61 -40479.4 
6.36e-07 12.4244 0.0687371 -3.4528e-10 102631 102725 102525 -406.475 -34015.5 -2685.28 -16880.9 
6.44e-07 12.4234 -0.068389 4.3801e-10 102673 102737 102497 -431.665 -3823.52 -5144.42 -21602.1 
6.52e-07 12.545 -0.0448699 -6.96805e-10 102503 102734 102440 -398.696 3725.97 10571.1 -5912.27 
6.6e-07 12.782 0.00714722 -2.06873e-10 102728 102763 102475 -402.409 -26959.9 -1175.75 -40659.6 
6.68e-07 12.6962 -0.0370483 -1.65578e-10 102505 102709 102522 -420.727 9788.17 3642.55 -4829.58 
6.76e-07 12.7581 -0.0549382 -3.41442e-10 102650 102826 102514 -401.994 -12594.9 17100.7 -3850.69 
6.84e-07 12.6693 -0.0422546 3.7648e-10 102401 102670 102332 -390.376 12526 6894.28 6169.81 
6.92e-07 13.0353 -0.0107193 -2.5279e-10 102630 102784 102467 -424.541 -43931.1 4317.18 -36306.2 
7e-07 13.3232 -0.02013 1.70924e-10 102697 102785 102740 -383.203 -57092 -7408.13 -3770.96 
7.08e-07 13.528 0.000372684 8.62911e-11 102699 102721 102564 -427.129 -16263.7 96.9699 33166.7 
7.16e-07 13.7911 0.00159305 -4.43786e-10 102599 102722 102602 -388.376 -29253.3 -1320.79 -21115.4 
7.24e-07 13.7966 -0.010305 -1.54794e-10 102662 102755 102534 -412.319 327.737 -2948.59 -19699.1 
7.32e-07 14.0432 -0.011042 -1.33737e-10 102645 102760 102733 -398.286 -15495.3 9048.78 -14116.4 
7.4e-07 14.1452 0.0356123 -5.02186e-11 102704 102803 102547 -423.401 -4531.82 -5391.25 -43127.5 
7.48e-07 14.1509 -0.0902105 1.05918e-11 102546 102715 102469 -438.579 24286.4 -7926.99 -12061.3 
7.56e-07 14.536 -0.00134988 -2.48028e-11 102605 102757 102718 -374.431 -20381.7 15272.8 -8341.44 
7.64e-07 14.7738 -0.102598 4.63858e-10 102718 102799 102682 -424.903 -32959.4 4894.35 13761.1 
7.72e-07 14.7321 0.0831748 8.06554e-11 102630 102713 102546 -406.299 -22952.5 -1555.56 37068.5 
7.8e-07 14.8369 -0.0337835 1.9728e-10 102660 102777 102839 -409.301 -57200.6 -11968.8 -7834.25 
7.88e-07 15.0402 -0.00668166 -4.25298e-11 102610 102754 102764 -398.445 -27918.4 16192.7 9565.48 
7.96e-07 15.1456 -0.0658453 -4.84159e-10 102616 102726 102718 -390.718 -6924.42 -8165.33 -2877.84 
8.04e-07 15.0235 0.0340623 3.96694e-11 102578 102761 102567 -421.021 9283.72 7874.45 8528.02 
8.12e-07 15.2708 -0.0658685 3.0278e-10 102629 102778 102625 -395.865 9332.02 -3063.9 21061.7 
8.2e-07 15.4639 0.029095 4.33616e-10 102693 102759 102590 -422.83 8529.99 4688.54 10334.5 
8.28e-07 15.6091 -0.0778411 1.04944e-10 102589 102737 102613 -442.436 40434.7 2403.84 -35880.9 
8.36e-07 15.5443 -0.0565922 -2.25238e-10 102706 102817 102598 -390.501 4990.38 -3450.34 -36772.7 
8.44e-07 15.89 0.00699704 4.27877e-11 102728 102715 102663 -393.273 -20250.7 7581.19 11375.8 
8.52e-07 15.9765 -0.0434071 -1.90896e-10 102635 102777 102642 -390.972 12620.9 5175.35 -12427.5 
8.6e-07 15.8167 -0.071633 5.18957e-10 102663 102784 102586 -438.452 41119.8 21349.7 7705.22 
8.68e-07 16.1666 -0.0877917 2.34364e-10 102602 102781 102548 -412.986 24799.1 10475.8 16980.8 
8.76e-07 16.4112 -0.0311895 4.28079e-10 102585 102770 102514 -413.297 39864.3 -3619.82 15081.2 
8.84e-07 16.6967 -0.0611781 -3.09956e-10 102615 102763 102618 -380.704 5717.9 7449.69 17257.9 
8.92e-07 16.808 -0.12181 -6.58143e-11 102503 102726 102566 -402.771 14853.1 -2058.95 9804.73 
9e-07 16.9368 -0.00831318 -2.61471e-10 102572 102710 102560 -395.741 -6698.92 12314.2 -23519.8 
9.08e-07 17.1438 -0.00106788 -1.18561e-10 102938 102756 102868 -424.473 2636.97 16035 -19762.1 
9.16e-07 17.4547 -0.116506 -1.58506e-10 102656 102816 102643 -392.043 -34795.4 -21319 4497.89 
9.24e-07 17.3203 -0.00689372 -2.25149e-10 102610 102745 102519 -396.612 -14932.4 11408.2 12056.6 
9.32e-07 17.3813 -0.0463387 -9.16243e-11 102573 102737 102721 -408.228 -41857.2 4103.14 -10957.9 
9.4e-07 17.2494 -0.107326 1.95158e-10 102647 102796 102886 -421.105 4083.18 6256.72 -12562.5 
9.48e-07 17.6473 -0.0984235 2.13182e-10 102708 102726 102898 -381.189 -33015.7 6179.7 -33434 
9.56e-07 17.7817 -0.0355986 -2.52383e-10 102839 102746 102863 -403.415 -8709.31 3512.78 -2696.65 
9.64e-07 17.9555 0.0100679 4.61317e-10 102809 102706 102840 -439.66 -29153.6 -6584.69 4768.76 
9.72e-07 18.1238 0.0685927 -1.54911e-10 102968 102762 103038 -404.232 -28959.8 -14485.7 21727.1 
9.8e-07 17.9848 0.0712859 -3.50837e-11 103011 102763 103040 -353.41 -14060.7 -27746.3 34817.9 
9.88e-07 18.3019 0.366675 -2.85221e-10 103195 102623 103548 -399.426 -40906.5 -54004.3 -2660.69 
9.96e-07 18.3617 1.56577 3.69813e-11 103690 102308 103825 -438.606 10822 -233223 5613.57 
