ITEM: TIMESTEP
500000
ITEM: NUMBER OF CELLS
125
ITEM: BOX BOUNDS pp ss pp
0 1e-06
0 1e-06
0 1e-06
ITEM: CELLS yc f_vel[1] f_vel[2] f_vel[3] f_mom[1] f_mom[2] f_mom[3] f_mom[4] f_q[1] f_q[2] f_q[3] 
4e-09 1.27105 -0.0352298 -1.83255e-10 104372 102690 104568 -415.652 -11089.7 38562.8 12977.4 
1.2e-08 1.187 0.0134368 1.4645e-10 103144 102588 103244 -424.271 16146.3 -14758.5 18313.9 
2e-08 1.4108 0.040554 -1.48186e-10 103219 102610 103178 -409.176 4145.28 8857.68 6601.98 
2.8e-08 1.96317 -0.0369634 2.07955e-10 103053 102648 102859 -421.495 -29734.1 -11981 -1002.03 
3.6e-08 1.99271 -0.00885581 -3.16596e-10 102797 102579 102839 -427.377 -23380 8132.18 16565.4 
4.4e-08 1.95904 0.0448445 9.62806e-11 102899 102605 102816 -401.554 14990 4489 -4553.76 
5.2e-08 2.11611 -0.0362415 -2.70637e-10 102864 102612 102773 -409.746 -22498.8 -17490.3 4148.16 
6e-08 2.22761 0.0195699 5.70057e-11 102971 102592 102850 -427.598 -16762.3 5240.82 -13879.9 
6.8e-08 2.51858 0.0243635 2.49148e-10 102879 102598 102760 -373.024 -55374.3 -5531.14 45273 
7.6e-08 2.65835 -0.0193215 -1.52054e-10 103003 102595 102869 -406.679 -14161.8 -3451.04 -5895.85 
8.4e-08 2.73002 -0.0350937 1.53431e-10 103040 102624 102890 -439.339 40331.3 41.953 8348.3 
9.2e-08 2.92479 0.0574158 1.02685e-10 102924 102597 102787 -403.993 -15576.1 -9332.28 76.7539 
1e-07 2.9439 -0.0288204 -2.48809e-10 102926 102586 102873 -414.107 -8962.88 -14493.7 4849.22 
1.08e-07 3.181 -0.00794338 -1.66801e-10 102994 102592 102887 -404.798 -30589.6 -2178.7 13493.5 
1.16e-07 3.26833 0.00817088 -8.51561e-11 102812 102596 102711 -393.712 -15908.4 1838.66 -5147.5 
1.24e-07 3.57753 -0.0109778 9.61285e-11 102924 102650 102777 -412.761 4356.23 -2180.22 51144 
1.32e-07 3.57653 0.0216515 9.84208e-11 103086 102570 102865 -407.798 -10416.1 -10519.9 -5583.03 
1.4e-07 3.83474 -0.0278664 1.0717e-10 102930 102618 102867 -435.696 -21290.4 -6313.33 12449.5 
1.48e-07 3.65473 -0.00464475 1.72037e-11 103071 102594 102935 -408.727 828.577 -3191.11 15345.4 
1.56e-07 3.94024 -0.0206488 1.108e-10 102994 102589 102942 -410.604 -24987.7 -7904.7 -4101.29 
1.64e-07 4.30434 0.0136717 -1.75264e-10 102741 102626 102665 -412.673 -1714.81 -10746.6 -1847.13 
1.72e-07 4.14379 0.0332966 1.43946e-10 102716 102577 102667 -427.01 4406.54 -16710.3 8370.14 
1.8e-07 4.73669 0.02114 -5.81423e-11 102798 102595 102818 -421.434 9152.38 -7603.71 15503.6 
1.88e-07 4.71543 -0.0271884 2.74393e-10 102807 102606 102882 -414.262 -29375.8 10096 3187.05 
1.96e-07 4.95871 0.00224846 -1.26258e-10 102757 102615 102876 -413.163 -7442 -17988.9 -19074 
2.04e-07 4.84072 -0.0199371 3.45008e-11 102658 102568 102721 -415.32 25313.3 4489.12 -6660.13 
2.12e-07 5.26265 0.035781 -1.12075e-10 102807 102617 102664 -420.864 -11919.1 -7328.84 -21010.2 
2.2e-07 5.39143 0.0226348 -9.65866e-12 102780 102580 102636 -421.791 -35621.2 -5880.62 -22958.4 
2.28e-07 5.45575 -0.0189234 -1.51991e-10 102724 102633 102841 -393.739 -44847 -7398.27 -7014.24 
2.36e-07 5.62278 0.0380131 7.90932e-11 102737 102549 102818 -427.342 -42368.5 -8023.02 -25937.5 
2.44e-07 5.81043 -0.00399731 -2.77204e-10 102676 102610 102704 -434.74 -22514.5 1091.08 6702.52 
2.52e-07 5.75113 -0.0309068 -1.60099e-10 102744 102621 102745 -394.019 -4818.25 -14626.9 -18259.7 
2.6e-07 5.80437 0.0102534 4.41764e-11 102731 102608 102727 -422.033 18968.8 -2190.86 8310.32 
2.68e-07 6.17972 0.0512511 7.63139e-11 102676 102565 102661 -418.212 -19032.7 -1555.34 -9311.24 
2.76e-07 6.20312 -0.0283305 7.90571e-11 102668 102610 102785 -422.169 -24469.1 -6746.91 -48471.8 
2.84e-07 6.20802 0.00470644 -3.67436e-10 102809 102626 102738 -385.341 -23389.2 -1200.13 -18560.4 
2.92e-07 6.29038 0.0258642 1.2567e-10 102646 102522 102743 -424.041 247.676 -7041.7 8026.55 
3e-07 6.54161 -0.022155 -5.29372e-11 102656 102617 102730 -399.857 -18297.2 3878.67 30314.5 
3.08e-07 6.73548 0.0250193 1.70434e-10 102617 102635 102719 -414.911 -35921 -11654.6 5173.95 
3.16e-07 6.80389 -0.00181212 -3.73677e-10 102785 102583 102744 -390.839 -25608.6 -7287.83 2831.08 
3.24e-07 7.19147 0.0404109 -1.71903e-10 102779 102621 102904 -445.136 -29733.8 2193.68 15086.8 
3.32e-07 7.07698 0.00408738 -2.20706e-10 102888 102597 102754 -408.25 6152.06 -2907.53 -3242.16 
3.4e-07 7.16575 -0.0586521 2.31468e-10 102869 102564 102894 -390.869 -21596 -3141.71 -37872.9 
3.48e-07 7.63974 0.0270357 3.42196e-10 102778 102570 102734 -416.114 -5698.37 3758.42 -12373.9 
3.56e-07 7.51122 -0.0209136 -9.24724e-11 102768 102605 102936 -428.293 -7905.01 -7843.41 -8744.71 
3.64e-07 7.72964 -0.00103213 -4.05203e-11 102872 102609 102953 -421.359 -4963.44 -7750.3 -32364.4 
3.72e-07 7.76914 -0.0203987 4.72979e-11 102911 102602 102924 -427.343 -13385.1 -1606.8 -36467 
3.8e-07 7.71234 0.0289033 -3.27124e-10 102863 102603 102853 -377.531 -17684.9 3135.18 25141.2 
3.88e-07 8.05405 0.0997018 3.61353e-10 102770 102582 102921 -428.793 -18798.4 -4808.94 34668.2 
3.96e-07 8.33354 -0.0893973 -1.3791e-10 102945 102577 102866 -408.235 -16757.2 -4125.36 -7705.07 
4.04e-07 8.49018 -0.00378575 1.31351e-11 102888 102621 102855 -423.557 -11561.5 -2461.78 -41239.7 
4.12e-07 8.2798 0.0177014 -1.93033e-11 102735 102597 102815 -373.721 26476.6 -10592.8 -2505.26 
4.2e-07 8.34616 -0.0114163 2.17259e-10 102870 102605 103023 -426.008 22460.2 3304.62 33069.5 
4.28e-07 8.53467 -0.0497393 -1.30694e-10 103068 102598 102868 -419.809 43087.3 -12459.1 35438.3 
4.36e-07 8.69952 0.0643205 -1.24212e-10 102652 102612 102492 -404.192 17510.2 11798.7 5472.06 
4.44e-07 8.77994 0.0209464 2.56732e-10 102856 102544 102720 -429.839 -31179.9 -4780.85 7372.01 
4.52e-07 8.93521 -0.0188617 3.21318e-10 102619 102602 102783 -438.496 16024.9 -44.3577 15084.5 
4.6e-07 9.08075 -0.0344049 6.86504e-11 102758 102613 102708 -411.752 2314.7 -8693.06 11060.1 
4.68e-07 9.35711 0.0749754 -1.18357e-10 102598 102549 102714 -382.359 27719.9 5504.05 809.861 
4.76e-07 9.51545 -0.0462443 7.16717e-11 102610 102627 102808 -413.553 -1823.02 -18394.7 -21819.3 
4.84e-07 9.6859 0.0451748 2.21137e-10 102757 102604 102944 -415.015 -2828.52 9798.35 -49985 
4.92e-07 9.90225 -0.0435376 1.97848e-10 102789 102564 102717 -439.804 -18437.4 -1763.08 -45194.7 
5e-07 9.99307 0.0254215 2.63506e-10 102861 102641 102893 -416.872 -9123.94 -8610.95 26705.7 
5.08e-07 10.1705 0.0216526 4.3897e-12 102615 102557 102716 -404.657 3971.84 -17196.7 44670.2 
5.16e-07 10.1993 -0.0136375 -2.25866e-11 102763 102625 102939 -423.264 177.321 -6751.62 -4309.56 
5.24e-07 10.2779 0.0358383 -5.54779e-10 102786 102585 102755 -424.247 15000.5 2489.59 -27956.3 
5.32e-07 10.5972 -0.00687127 -6.65339e-11 102874 102611 102825 -382.367 29925.7 -2896.06 6313.26 
5.4e-07 10.7102 0.00223358 -6.94268e-11 102926 102557 102744 -442.624 1714.54 727.368 -6670.49 
5.48e-07 10.7806 -0.062024 -4.81742e-10 102622 102618 102590 -399.282 11224.9 -12037.4 -21441.8 
5.56e-07 10.9049 0.0155971 -2.71129e-10 102820 102594 102823 -402.661 -3709.43 367.583 -28553.3 
5.64e-07 11.2084 0.0848703 -1.02212e-11 102674 102602 102505 -420.235 23111.1 1808.18 -38884 
5.72e-07 11.0892 -0.0604763 5.77486e-11 102608 102593 102597 -411.237 53891.8 -1186.43 -70098.2 
5.8e-07 11.3235 -0.0152898 8.05771e-11 102600 102582 102556 -425.254 25822 4342.78 -24320.5 
5.88e-07 11.7869 0.0464475 2.20194e-10 102617 102590 102636 -407.849 -47692.1 -7707.64 -30005.9 
5.96e-07 11.6457 -0.0184296 -3.56214e-10 102697 102558 102712 -402.188 -26309.4 -6861.59 24432.7 
6.04e-07 11.6955 0.06653 5.80818e-11 102677 102653 102829 -412.059 -1339.51 1818.37 26683.7 
6.12e-07 11.9044 -0.0528265 4.7239e-10 102731 102582 102744 -411.433 9594.01 -3377.17 35647.1 
6.2e-07 11.9803 0.00777262 2.55171e-10 102911 102585 102750 -435.066 -17510.2 -2653.84 -20539.7 
6.28e-07 12.096 0.022454 -1.67575e-10 102817 102610 102828 -394.109 34436.9 517.11 -17407.7 
6.36e-07 12.1229 0.023689 1.85283e-10 102708 102560 102677 -449.395 48510.1 -8942.98 -20539.1 
6.44e-07 12.4393 -0.0162809 -5.45702e-10 102921 102617 102832 -415.6 31302.2 8683.72 16635.7 
6.52e-07 12.5065 -0.0239431 -1.68613e-10 102884 102531 102695 -413.525 12440.7 -18607.2 19186.1 
6.6e-07 12.4479 0.0255043 3.12704e-10 102758 102620 102700 -420.553 34824.4 13305 -29395.8 
6.68e-07 12.8586 -0.0247594 5.30137e-12 102788 102609 102664 -420.298 7133.87 1027.13 8727.83 
6.76e-07 12.912 0.0420978 -1.01393e-10 102747 102637 102625 -406.405 -16456.5 -7391.18 20385.7 
6.84e-07 13.3289 -0.0294108 -3.34859e-10 102666 102584 102639 -410.061 -44262.1 9290.02 -57261.9 
6.92e-07 13.1869 0.0406478 -1.25718e-11 102922 102593 102668 -436.875 -22103.9 2043.56 -8929.84 
7e-07 13.4768 -0.0227042 -1.36133e-10 102923 102586 102813 -398.03 7924.33 1171.97 -31423.1 
7.08e-07 13.6715 -0.00260821 -5.14944e-11 102819 102630 102641 -418.159 -5191.14 -6292.33 28066.4 
7.16e-07 13.6888 0.01614 4.24831e-11 102726 102581 102837 -421.546 15831.6 -1013.02 -29894.8 
7.24e-07 13.811 5.23201e-05 -1.70361e-10 102544 102543 102676 -427.635 34454.4 -9833.07 -1383.46 
7.32e-07 14.1582 0.010663 -1.12442e-10 102663 102652 102780 -399.244 12281.2 6777.3 35190.1 
7.4e-07 14.1093 0.0396126 1.71119e-10 102719 102549 102609 -441.677 11597.3 3578.15 -11859.3 
7.48e-07 14.3556 -0.0714841 2.68364e-10 102773 102592 102820 -391.893 -2232.18 -4019.15 -8077.87 
7.56e-07 14.4262 0.0215111 -1.88404e-10 102796 102605 102802 -425.09 -5477.4 5268.18 -26579.5 
7.64e-07 14.7955 -0.00783509 -2.76778e-10 102714 102602 102925 -409.085 -33743.5 -18753.6 -18298.4 
7.72e-07 14.6715 0.0291808 -2.68885e-10 102795 102587 102942 -439.171 -19940.7 12868.2 -29396.7 
7.8e-07 14.6793 -0.0328039 -8.72998e-11 102961 102617 102789 -395.761 -11607.1 -4158.29 20098.9 
7.88e-07 14.8798 0.0162899 1.2949e-10 102815 102568 102682 -408.715 -26886.2 9153.11 -21078.7 
7.96e-07 14.9902 -0.0088041 -3.0426e-11 102864 102596 102707 -435.257 -9519.08 -2833.05 30233.3 
8.04e-07 14.9417 0.0143085 -2.0177e-10 102673 102572 102680 -427.621 24463.2 1632.58 6005.59 
8.12e-07 15.2997 0.000280562 -1.77144e-10 102747 102590 102739 -395.882 10388.2 7017.09 -7141.9 
8.2e-07 15.2434 -0.0278657 -8.08391e-11 102970 102649 102834 -407.151 8895.39 -4414.98 -3423.73 
8.28e-07 15.6061 -0.0044829 -1.08434e-11 102707 102601 102824 -399.54 -11874.1 6513.86 -5606.25 
8.36e-07 15.7154 0.0226128 -1.25311e-10 102838 102578 102858 -404.822 36378.3 6582.33 -25876.3 
8.44e-07 15.9321 -0.00388436 9.02901e-11 102790 102575 102614 -425.181 -15356.7 -12724.3 -8773.4 
8.52e-07 15.9597 0.00354309 -2.9733e-10 102966 102632 102900 -444.649 -33885.3 12340.3 -38917.6 
8.6e-07 16.3222 -0.00567954 1.59799e-10 102825 102606 102834 -408.61 -54076.8 -8516.1 -27178.4 
8.68e-07 16.3743 -0.0550514 8.72785e-11 102786 102603 102827 -415.869 -35644.5 7724.74 -6290.22 
8.76e-07 16.6607 0.0711842 -2.78559e-10 102791 102615 102782 -422.454 -25724.8 -521.803 -1706.8 
8.84e-07 16.4262 0.00984447 -7.25249e-11 102833 102527 102754 -432.988 11909.5 -1610.42 -27786.5 
8.92e-07 16.4866 -0.0505599 1.82743e-10 102791 102629 102770 -384.07 -27740.4 -5707 32083.1 
9e-07 16.4964 0.0549185 2.10306e-10 102759 102593 102638 -423.467 24216.3 -2855.07 14219.2 
9.08e-07 16.9179 0.0289739 -2.92832e-10 102914 102594 102737 -416.86 4483.4 3879.44 -52587.5 
9.16e-07 17.0752 -0.0194824 6.17976e-11 102816 102604 102713 -406.638 3383.42 -4794.56 5657.95 
9.24e-07 17.1805 -0.0602981 -2.66977e-10 102882 102609 102678 -438.657 -23346.4 -5617.87 -21411.4 
9.32e-07 17.3672 -0.00130692 7.28367e-11 102659 102559 102679 -395.525 -50203 7188.64 3875.38 
9.4e-07 17.4675 0.00168686 4.65139e-10 102854 102696 102846 -426.22 -21504.9 -12025.2 -28449 
9.48e-07 17.4299 0.0653455 -2.09082e-10 102889 102522 102857 -420.713 -31517.1 6586.9 -6373.86 
9.56e-07 17.6349 -0.0921495 2.88812e-10 103009 102637 102944 -407.636 -45413 -14904.9 -26141.8 
9.64e-07 18.1342 0.056019 1.11664e-10 102881 102588 102881 -423.455 -82444.3 6627.09 1286.83 
9.72e-07 18.2008 -0.00111306 -7.39515e-11 102788 102583 102906 -415.194 -42711.1 -9507.54 -19997.4 
9.8e-07 18.4801 -0.0199632 9.25876e-11 103044 102654 103097 -385.454 -71903.2 -8132.96 1117.38 
9.88e-07 18.647 0.0247046 -5.27757e-11 103316 102617 103200 -400.216 -56151.6 -7245.74 -38779.2 
9.96e-07 18.7153 -0.00752134 3.67692e-10 104730 102627 104549 -422.169 -8554.12 -19994.9 -44501.9 
